+ 1 1 2 cbr 210 ------- 0 1.0 3.1 0 0
- 1 1 2 cbr 210 ------- 0 1.0 3.1 0 0
+ 1.00375 1 2 cbr 210 ------- 0 1.0 3.1 1 1
- 1.00375 1 2 cbr 210 ------- 0 1.0 3.1 1 1
+ 1.0075 1 2 cbr 210 ------- 0 1.0 3.1 2 2
- 1.0075 1 2 cbr 210 ------- 0 1.0 3.1 2 2
r 1.01112 1 2 cbr 210 ------- 0 1.0 3.1 0 0
+ 1.01112 2 3 cbr 210 ------- 0 1.0 3.1 0 0
- 1.01112 2 3 cbr 210 ------- 0 1.0 3.1 0 0
+ 1.01125 1 2 cbr 210 ------- 0 1.0 3.1 3 3
- 1.01125 1 2 cbr 210 ------- 0 1.0 3.1 3 3
r 1.01487 1 2 cbr 210 ------- 0 1.0 3.1 1 1
+ 1.01487 2 3 cbr 210 ------- 0 1.0 3.1 1 1
- 1.01487 2 3 cbr 210 ------- 0 1.0 3.1 1 1
+ 1.015 1 2 cbr 210 ------- 0 1.0 3.1 4 4
- 1.015 1 2 cbr 210 ------- 0 1.0 3.1 4 4
r 1.01862 1 2 cbr 210 ------- 0 1.0 3.1 2 2
+ 1.01862 2 3 cbr 210 ------- 0 1.0 3.1 2 2
- 1.01862 2 3 cbr 210 ------- 0 1.0 3.1 2 2
+ 1.01875 1 2 cbr 210 ------- 0 1.0 3.1 5 5
- 1.01875 1 2 cbr 210 ------- 0 1.0 3.1 5 5
r 1.02224 2 3 cbr 210 ------- 0 1.0 3.1 0 0
r 1.02237 1 2 cbr 210 ------- 0 1.0 3.1 3 3
+ 1.02237 2 3 cbr 210 ------- 0 1.0 3.1 3 3
- 1.02237 2 3 cbr 210 ------- 0 1.0 3.1 3 3
+ 1.0225 1 2 cbr 210 ------- 0 1.0 3.1 6 6
- 1.0225 1 2 cbr 210 ------- 0 1.0 3.1 6 6
r 1.02599 2 3 cbr 210 ------- 0 1.0 3.1 1 1
r 1.02612 1 2 cbr 210 ------- 0 1.0 3.1 4 4
+ 1.02612 2 3 cbr 210 ------- 0 1.0 3.1 4 4
- 1.02612 2 3 cbr 210 ------- 0 1.0 3.1 4 4
+ 1.02625 1 2 cbr 210 ------- 0 1.0 3.1 7 7
- 1.02625 1 2 cbr 210 ------- 0 1.0 3.1 7 7
r 1.02974 2 3 cbr 210 ------- 0 1.0 3.1 2 2
r 1.02987 1 2 cbr 210 ------- 0 1.0 3.1 5 5
+ 1.02987 2 3 cbr 210 ------- 0 1.0 3.1 5 5
- 1.02987 2 3 cbr 210 ------- 0 1.0 3.1 5 5
+ 1.03 1 2 cbr 210 ------- 0 1.0 3.1 8 8
- 1.03 1 2 cbr 210 ------- 0 1.0 3.1 8 8
r 1.03349 2 3 cbr 210 ------- 0 1.0 3.1 3 3
r 1.03362 1 2 cbr 210 ------- 0 1.0 3.1 6 6
+ 1.03362 2 3 cbr 210 ------- 0 1.0 3.1 6 6
- 1.03362 2 3 cbr 210 ------- 0 1.0 3.1 6 6
+ 1.03375 1 2 cbr 210 ------- 0 1.0 3.1 9 9
- 1.03375 1 2 cbr 210 ------- 0 1.0 3.1 9 9
r 1.03724 2 3 cbr 210 ------- 0 1.0 3.1 4 4
r 1.03737 1 2 cbr 210 ------- 0 1.0 3.1 7 7
+ 1.03737 2 3 cbr 210 ------- 0 1.0 3.1 7 7
- 1.03737 2 3 cbr 210 ------- 0 1.0 3.1 7 7
+ 1.0375 1 2 cbr 210 ------- 0 1.0 3.1 10 10
- 1.0375 1 2 cbr 210 ------- 0 1.0 3.1 10 10
r 1.04099 2 3 cbr 210 ------- 0 1.0 3.1 5 5
r 1.04112 1 2 cbr 210 ------- 0 1.0 3.1 8 8
+ 1.04112 2 3 cbr 210 ------- 0 1.0 3.1 8 8
- 1.04112 2 3 cbr 210 ------- 0 1.0 3.1 8 8
+ 1.04125 1 2 cbr 210 ------- 0 1.0 3.1 11 11
- 1.04125 1 2 cbr 210 ------- 0 1.0 3.1 11 11
r 1.04474 2 3 cbr 210 ------- 0 1.0 3.1 6 6
r 1.04487 1 2 cbr 210 ------- 0 1.0 3.1 9 9
+ 1.04487 2 3 cbr 210 ------- 0 1.0 3.1 9 9
- 1.04487 2 3 cbr 210 ------- 0 1.0 3.1 9 9
+ 1.045 1 2 cbr 210 ------- 0 1.0 3.1 12 12
- 1.045 1 2 cbr 210 ------- 0 1.0 3.1 12 12
r 1.04849 2 3 cbr 210 ------- 0 1.0 3.1 7 7
r 1.04862 1 2 cbr 210 ------- 0 1.0 3.1 10 10
+ 1.04862 2 3 cbr 210 ------- 0 1.0 3.1 10 10
- 1.04862 2 3 cbr 210 ------- 0 1.0 3.1 10 10
+ 1.04875 1 2 cbr 210 ------- 0 1.0 3.1 13 13
- 1.04875 1 2 cbr 210 ------- 0 1.0 3.1 13 13
r 1.05224 2 3 cbr 210 ------- 0 1.0 3.1 8 8
r 1.05237 1 2 cbr 210 ------- 0 1.0 3.1 11 11
+ 1.05237 2 3 cbr 210 ------- 0 1.0 3.1 11 11
- 1.05237 2 3 cbr 210 ------- 0 1.0 3.1 11 11
+ 1.0525 1 2 cbr 210 ------- 0 1.0 3.1 14 14
- 1.0525 1 2 cbr 210 ------- 0 1.0 3.1 14 14
r 1.05599 2 3 cbr 210 ------- 0 1.0 3.1 9 9
r 1.05612 1 2 cbr 210 ------- 0 1.0 3.1 12 12
+ 1.05612 2 3 cbr 210 ------- 0 1.0 3.1 12 12
- 1.05612 2 3 cbr 210 ------- 0 1.0 3.1 12 12
+ 1.05625 1 2 cbr 210 ------- 0 1.0 3.1 15 15
- 1.05625 1 2 cbr 210 ------- 0 1.0 3.1 15 15
r 1.05974 2 3 cbr 210 ------- 0 1.0 3.1 10 10
r 1.05987 1 2 cbr 210 ------- 0 1.0 3.1 13 13
+ 1.05987 2 3 cbr 210 ------- 0 1.0 3.1 13 13
- 1.05987 2 3 cbr 210 ------- 0 1.0 3.1 13 13
+ 1.06 1 2 cbr 210 ------- 0 1.0 3.1 16 16
- 1.06 1 2 cbr 210 ------- 0 1.0 3.1 16 16
r 1.06349 2 3 cbr 210 ------- 0 1.0 3.1 11 11
r 1.06362 1 2 cbr 210 ------- 0 1.0 3.1 14 14
+ 1.06362 2 3 cbr 210 ------- 0 1.0 3.1 14 14
- 1.06362 2 3 cbr 210 ------- 0 1.0 3.1 14 14
+ 1.06375 1 2 cbr 210 ------- 0 1.0 3.1 17 17
- 1.06375 1 2 cbr 210 ------- 0 1.0 3.1 17 17
r 1.06724 2 3 cbr 210 ------- 0 1.0 3.1 12 12
r 1.06737 1 2 cbr 210 ------- 0 1.0 3.1 15 15
+ 1.06737 2 3 cbr 210 ------- 0 1.0 3.1 15 15
- 1.06737 2 3 cbr 210 ------- 0 1.0 3.1 15 15
+ 1.0675 1 2 cbr 210 ------- 0 1.0 3.1 18 18
- 1.0675 1 2 cbr 210 ------- 0 1.0 3.1 18 18
r 1.07099 2 3 cbr 210 ------- 0 1.0 3.1 13 13
r 1.07112 1 2 cbr 210 ------- 0 1.0 3.1 16 16
+ 1.07112 2 3 cbr 210 ------- 0 1.0 3.1 16 16
- 1.07112 2 3 cbr 210 ------- 0 1.0 3.1 16 16
+ 1.07125 1 2 cbr 210 ------- 0 1.0 3.1 19 19
- 1.07125 1 2 cbr 210 ------- 0 1.0 3.1 19 19
r 1.07474 2 3 cbr 210 ------- 0 1.0 3.1 14 14
r 1.07487 1 2 cbr 210 ------- 0 1.0 3.1 17 17
+ 1.07487 2 3 cbr 210 ------- 0 1.0 3.1 17 17
- 1.07487 2 3 cbr 210 ------- 0 1.0 3.1 17 17
+ 1.075 1 2 cbr 210 ------- 0 1.0 3.1 20 20
- 1.075 1 2 cbr 210 ------- 0 1.0 3.1 20 20
r 1.07849 2 3 cbr 210 ------- 0 1.0 3.1 15 15
r 1.07862 1 2 cbr 210 ------- 0 1.0 3.1 18 18
+ 1.07862 2 3 cbr 210 ------- 0 1.0 3.1 18 18
- 1.07862 2 3 cbr 210 ------- 0 1.0 3.1 18 18
+ 1.07875 1 2 cbr 210 ------- 0 1.0 3.1 21 21
- 1.07875 1 2 cbr 210 ------- 0 1.0 3.1 21 21
r 1.08224 2 3 cbr 210 ------- 0 1.0 3.1 16 16
r 1.08237 1 2 cbr 210 ------- 0 1.0 3.1 19 19
+ 1.08237 2 3 cbr 210 ------- 0 1.0 3.1 19 19
- 1.08237 2 3 cbr 210 ------- 0 1.0 3.1 19 19
+ 1.0825 1 2 cbr 210 ------- 0 1.0 3.1 22 22
- 1.0825 1 2 cbr 210 ------- 0 1.0 3.1 22 22
r 1.08599 2 3 cbr 210 ------- 0 1.0 3.1 17 17
r 1.08612 1 2 cbr 210 ------- 0 1.0 3.1 20 20
+ 1.08612 2 3 cbr 210 ------- 0 1.0 3.1 20 20
- 1.08612 2 3 cbr 210 ------- 0 1.0 3.1 20 20
+ 1.08625 1 2 cbr 210 ------- 0 1.0 3.1 23 23
- 1.08625 1 2 cbr 210 ------- 0 1.0 3.1 23 23
r 1.08974 2 3 cbr 210 ------- 0 1.0 3.1 18 18
r 1.08987 1 2 cbr 210 ------- 0 1.0 3.1 21 21
+ 1.08987 2 3 cbr 210 ------- 0 1.0 3.1 21 21
- 1.08987 2 3 cbr 210 ------- 0 1.0 3.1 21 21
+ 1.09 1 2 cbr 210 ------- 0 1.0 3.1 24 24
- 1.09 1 2 cbr 210 ------- 0 1.0 3.1 24 24
r 1.09349 2 3 cbr 210 ------- 0 1.0 3.1 19 19
r 1.09362 1 2 cbr 210 ------- 0 1.0 3.1 22 22
+ 1.09362 2 3 cbr 210 ------- 0 1.0 3.1 22 22
- 1.09362 2 3 cbr 210 ------- 0 1.0 3.1 22 22
+ 1.09375 1 2 cbr 210 ------- 0 1.0 3.1 25 25
- 1.09375 1 2 cbr 210 ------- 0 1.0 3.1 25 25
r 1.09724 2 3 cbr 210 ------- 0 1.0 3.1 20 20
r 1.09737 1 2 cbr 210 ------- 0 1.0 3.1 23 23
+ 1.09737 2 3 cbr 210 ------- 0 1.0 3.1 23 23
- 1.09737 2 3 cbr 210 ------- 0 1.0 3.1 23 23
+ 1.0975 1 2 cbr 210 ------- 0 1.0 3.1 26 26
- 1.0975 1 2 cbr 210 ------- 0 1.0 3.1 26 26
r 1.10099 2 3 cbr 210 ------- 0 1.0 3.1 21 21
r 1.10112 1 2 cbr 210 ------- 0 1.0 3.1 24 24
+ 1.10112 2 3 cbr 210 ------- 0 1.0 3.1 24 24
- 1.10112 2 3 cbr 210 ------- 0 1.0 3.1 24 24
+ 1.10125 1 2 cbr 210 ------- 0 1.0 3.1 27 27
- 1.10125 1 2 cbr 210 ------- 0 1.0 3.1 27 27
r 1.10474 2 3 cbr 210 ------- 0 1.0 3.1 22 22
r 1.10487 1 2 cbr 210 ------- 0 1.0 3.1 25 25
+ 1.10487 2 3 cbr 210 ------- 0 1.0 3.1 25 25
- 1.10487 2 3 cbr 210 ------- 0 1.0 3.1 25 25
+ 1.105 1 2 cbr 210 ------- 0 1.0 3.1 28 28
- 1.105 1 2 cbr 210 ------- 0 1.0 3.1 28 28
r 1.10849 2 3 cbr 210 ------- 0 1.0 3.1 23 23
r 1.10862 1 2 cbr 210 ------- 0 1.0 3.1 26 26
+ 1.10862 2 3 cbr 210 ------- 0 1.0 3.1 26 26
- 1.10862 2 3 cbr 210 ------- 0 1.0 3.1 26 26
+ 1.10875 1 2 cbr 210 ------- 0 1.0 3.1 29 29
- 1.10875 1 2 cbr 210 ------- 0 1.0 3.1 29 29
r 1.11224 2 3 cbr 210 ------- 0 1.0 3.1 24 24
r 1.11237 1 2 cbr 210 ------- 0 1.0 3.1 27 27
+ 1.11237 2 3 cbr 210 ------- 0 1.0 3.1 27 27
- 1.11237 2 3 cbr 210 ------- 0 1.0 3.1 27 27
+ 1.1125 1 2 cbr 210 ------- 0 1.0 3.1 30 30
- 1.1125 1 2 cbr 210 ------- 0 1.0 3.1 30 30
r 1.11599 2 3 cbr 210 ------- 0 1.0 3.1 25 25
r 1.11612 1 2 cbr 210 ------- 0 1.0 3.1 28 28
+ 1.11612 2 3 cbr 210 ------- 0 1.0 3.1 28 28
- 1.11612 2 3 cbr 210 ------- 0 1.0 3.1 28 28
+ 1.11625 1 2 cbr 210 ------- 0 1.0 3.1 31 31
- 1.11625 1 2 cbr 210 ------- 0 1.0 3.1 31 31
r 1.11974 2 3 cbr 210 ------- 0 1.0 3.1 26 26
r 1.11987 1 2 cbr 210 ------- 0 1.0 3.1 29 29
+ 1.11987 2 3 cbr 210 ------- 0 1.0 3.1 29 29
- 1.11987 2 3 cbr 210 ------- 0 1.0 3.1 29 29
+ 1.12 1 2 cbr 210 ------- 0 1.0 3.1 32 32
- 1.12 1 2 cbr 210 ------- 0 1.0 3.1 32 32
r 1.12349 2 3 cbr 210 ------- 0 1.0 3.1 27 27
r 1.12362 1 2 cbr 210 ------- 0 1.0 3.1 30 30
+ 1.12362 2 3 cbr 210 ------- 0 1.0 3.1 30 30
- 1.12362 2 3 cbr 210 ------- 0 1.0 3.1 30 30
+ 1.12375 1 2 cbr 210 ------- 0 1.0 3.1 33 33
- 1.12375 1 2 cbr 210 ------- 0 1.0 3.1 33 33
r 1.12724 2 3 cbr 210 ------- 0 1.0 3.1 28 28
r 1.12737 1 2 cbr 210 ------- 0 1.0 3.1 31 31
+ 1.12737 2 3 cbr 210 ------- 0 1.0 3.1 31 31
- 1.12737 2 3 cbr 210 ------- 0 1.0 3.1 31 31
+ 1.1275 1 2 cbr 210 ------- 0 1.0 3.1 34 34
- 1.1275 1 2 cbr 210 ------- 0 1.0 3.1 34 34
r 1.13099 2 3 cbr 210 ------- 0 1.0 3.1 29 29
r 1.13112 1 2 cbr 210 ------- 0 1.0 3.1 32 32
+ 1.13112 2 3 cbr 210 ------- 0 1.0 3.1 32 32
- 1.13112 2 3 cbr 210 ------- 0 1.0 3.1 32 32
+ 1.13125 1 2 cbr 210 ------- 0 1.0 3.1 35 35
- 1.13125 1 2 cbr 210 ------- 0 1.0 3.1 35 35
r 1.13474 2 3 cbr 210 ------- 0 1.0 3.1 30 30
r 1.13487 1 2 cbr 210 ------- 0 1.0 3.1 33 33
+ 1.13487 2 3 cbr 210 ------- 0 1.0 3.1 33 33
- 1.13487 2 3 cbr 210 ------- 0 1.0 3.1 33 33
+ 1.135 1 2 cbr 210 ------- 0 1.0 3.1 36 36
- 1.135 1 2 cbr 210 ------- 0 1.0 3.1 36 36
r 1.13849 2 3 cbr 210 ------- 0 1.0 3.1 31 31
r 1.13862 1 2 cbr 210 ------- 0 1.0 3.1 34 34
+ 1.13862 2 3 cbr 210 ------- 0 1.0 3.1 34 34
- 1.13862 2 3 cbr 210 ------- 0 1.0 3.1 34 34
+ 1.13875 1 2 cbr 210 ------- 0 1.0 3.1 37 37
- 1.13875 1 2 cbr 210 ------- 0 1.0 3.1 37 37
r 1.14224 2 3 cbr 210 ------- 0 1.0 3.1 32 32
r 1.14237 1 2 cbr 210 ------- 0 1.0 3.1 35 35
+ 1.14237 2 3 cbr 210 ------- 0 1.0 3.1 35 35
- 1.14237 2 3 cbr 210 ------- 0 1.0 3.1 35 35
+ 1.1425 1 2 cbr 210 ------- 0 1.0 3.1 38 38
- 1.1425 1 2 cbr 210 ------- 0 1.0 3.1 38 38
r 1.14599 2 3 cbr 210 ------- 0 1.0 3.1 33 33
r 1.14612 1 2 cbr 210 ------- 0 1.0 3.1 36 36
+ 1.14612 2 3 cbr 210 ------- 0 1.0 3.1 36 36
- 1.14612 2 3 cbr 210 ------- 0 1.0 3.1 36 36
+ 1.14625 1 2 cbr 210 ------- 0 1.0 3.1 39 39
- 1.14625 1 2 cbr 210 ------- 0 1.0 3.1 39 39
r 1.14974 2 3 cbr 210 ------- 0 1.0 3.1 34 34
r 1.14987 1 2 cbr 210 ------- 0 1.0 3.1 37 37
+ 1.14987 2 3 cbr 210 ------- 0 1.0 3.1 37 37
- 1.14987 2 3 cbr 210 ------- 0 1.0 3.1 37 37
+ 1.15 1 2 cbr 210 ------- 0 1.0 3.1 40 40
- 1.15 1 2 cbr 210 ------- 0 1.0 3.1 40 40
r 1.15349 2 3 cbr 210 ------- 0 1.0 3.1 35 35
r 1.15362 1 2 cbr 210 ------- 0 1.0 3.1 38 38
+ 1.15362 2 3 cbr 210 ------- 0 1.0 3.1 38 38
- 1.15362 2 3 cbr 210 ------- 0 1.0 3.1 38 38
+ 1.15375 1 2 cbr 210 ------- 0 1.0 3.1 41 41
- 1.15375 1 2 cbr 210 ------- 0 1.0 3.1 41 41
r 1.15724 2 3 cbr 210 ------- 0 1.0 3.1 36 36
r 1.15737 1 2 cbr 210 ------- 0 1.0 3.1 39 39
+ 1.15737 2 3 cbr 210 ------- 0 1.0 3.1 39 39
- 1.15737 2 3 cbr 210 ------- 0 1.0 3.1 39 39
+ 1.1575 1 2 cbr 210 ------- 0 1.0 3.1 42 42
- 1.1575 1 2 cbr 210 ------- 0 1.0 3.1 42 42
r 1.16099 2 3 cbr 210 ------- 0 1.0 3.1 37 37
r 1.16112 1 2 cbr 210 ------- 0 1.0 3.1 40 40
+ 1.16112 2 3 cbr 210 ------- 0 1.0 3.1 40 40
- 1.16112 2 3 cbr 210 ------- 0 1.0 3.1 40 40
+ 1.16125 1 2 cbr 210 ------- 0 1.0 3.1 43 43
- 1.16125 1 2 cbr 210 ------- 0 1.0 3.1 43 43
r 1.16474 2 3 cbr 210 ------- 0 1.0 3.1 38 38
r 1.16487 1 2 cbr 210 ------- 0 1.0 3.1 41 41
+ 1.16487 2 3 cbr 210 ------- 0 1.0 3.1 41 41
- 1.16487 2 3 cbr 210 ------- 0 1.0 3.1 41 41
+ 1.165 1 2 cbr 210 ------- 0 1.0 3.1 44 44
- 1.165 1 2 cbr 210 ------- 0 1.0 3.1 44 44
r 1.16849 2 3 cbr 210 ------- 0 1.0 3.1 39 39
r 1.16862 1 2 cbr 210 ------- 0 1.0 3.1 42 42
+ 1.16862 2 3 cbr 210 ------- 0 1.0 3.1 42 42
- 1.16862 2 3 cbr 210 ------- 0 1.0 3.1 42 42
+ 1.16875 1 2 cbr 210 ------- 0 1.0 3.1 45 45
- 1.16875 1 2 cbr 210 ------- 0 1.0 3.1 45 45
r 1.17224 2 3 cbr 210 ------- 0 1.0 3.1 40 40
r 1.17237 1 2 cbr 210 ------- 0 1.0 3.1 43 43
+ 1.17237 2 3 cbr 210 ------- 0 1.0 3.1 43 43
- 1.17237 2 3 cbr 210 ------- 0 1.0 3.1 43 43
+ 1.1725 1 2 cbr 210 ------- 0 1.0 3.1 46 46
- 1.1725 1 2 cbr 210 ------- 0 1.0 3.1 46 46
r 1.17599 2 3 cbr 210 ------- 0 1.0 3.1 41 41
r 1.17612 1 2 cbr 210 ------- 0 1.0 3.1 44 44
+ 1.17612 2 3 cbr 210 ------- 0 1.0 3.1 44 44
- 1.17612 2 3 cbr 210 ------- 0 1.0 3.1 44 44
+ 1.17625 1 2 cbr 210 ------- 0 1.0 3.1 47 47
- 1.17625 1 2 cbr 210 ------- 0 1.0 3.1 47 47
r 1.17974 2 3 cbr 210 ------- 0 1.0 3.1 42 42
r 1.17987 1 2 cbr 210 ------- 0 1.0 3.1 45 45
+ 1.17987 2 3 cbr 210 ------- 0 1.0 3.1 45 45
- 1.17987 2 3 cbr 210 ------- 0 1.0 3.1 45 45
+ 1.18 1 2 cbr 210 ------- 0 1.0 3.1 48 48
- 1.18 1 2 cbr 210 ------- 0 1.0 3.1 48 48
r 1.18349 2 3 cbr 210 ------- 0 1.0 3.1 43 43
r 1.18362 1 2 cbr 210 ------- 0 1.0 3.1 46 46
+ 1.18362 2 3 cbr 210 ------- 0 1.0 3.1 46 46
- 1.18362 2 3 cbr 210 ------- 0 1.0 3.1 46 46
+ 1.18375 1 2 cbr 210 ------- 0 1.0 3.1 49 49
- 1.18375 1 2 cbr 210 ------- 0 1.0 3.1 49 49
r 1.18724 2 3 cbr 210 ------- 0 1.0 3.1 44 44
r 1.18737 1 2 cbr 210 ------- 0 1.0 3.1 47 47
+ 1.18737 2 3 cbr 210 ------- 0 1.0 3.1 47 47
- 1.18737 2 3 cbr 210 ------- 0 1.0 3.1 47 47
+ 1.1875 1 2 cbr 210 ------- 0 1.0 3.1 50 50
- 1.1875 1 2 cbr 210 ------- 0 1.0 3.1 50 50
r 1.19099 2 3 cbr 210 ------- 0 1.0 3.1 45 45
r 1.19112 1 2 cbr 210 ------- 0 1.0 3.1 48 48
+ 1.19112 2 3 cbr 210 ------- 0 1.0 3.1 48 48
- 1.19112 2 3 cbr 210 ------- 0 1.0 3.1 48 48
+ 1.19125 1 2 cbr 210 ------- 0 1.0 3.1 51 51
- 1.19125 1 2 cbr 210 ------- 0 1.0 3.1 51 51
r 1.19474 2 3 cbr 210 ------- 0 1.0 3.1 46 46
r 1.19487 1 2 cbr 210 ------- 0 1.0 3.1 49 49
+ 1.19487 2 3 cbr 210 ------- 0 1.0 3.1 49 49
- 1.19487 2 3 cbr 210 ------- 0 1.0 3.1 49 49
+ 1.195 1 2 cbr 210 ------- 0 1.0 3.1 52 52
- 1.195 1 2 cbr 210 ------- 0 1.0 3.1 52 52
r 1.19849 2 3 cbr 210 ------- 0 1.0 3.1 47 47
r 1.19862 1 2 cbr 210 ------- 0 1.0 3.1 50 50
+ 1.19862 2 3 cbr 210 ------- 0 1.0 3.1 50 50
- 1.19862 2 3 cbr 210 ------- 0 1.0 3.1 50 50
+ 1.19875 1 2 cbr 210 ------- 0 1.0 3.1 53 53
- 1.19875 1 2 cbr 210 ------- 0 1.0 3.1 53 53
r 1.20224 2 3 cbr 210 ------- 0 1.0 3.1 48 48
r 1.20237 1 2 cbr 210 ------- 0 1.0 3.1 51 51
+ 1.20237 2 3 cbr 210 ------- 0 1.0 3.1 51 51
- 1.20237 2 3 cbr 210 ------- 0 1.0 3.1 51 51
+ 1.2025 1 2 cbr 210 ------- 0 1.0 3.1 54 54
- 1.2025 1 2 cbr 210 ------- 0 1.0 3.1 54 54
r 1.20599 2 3 cbr 210 ------- 0 1.0 3.1 49 49
r 1.20612 1 2 cbr 210 ------- 0 1.0 3.1 52 52
+ 1.20612 2 3 cbr 210 ------- 0 1.0 3.1 52 52
- 1.20612 2 3 cbr 210 ------- 0 1.0 3.1 52 52
+ 1.20625 1 2 cbr 210 ------- 0 1.0 3.1 55 55
- 1.20625 1 2 cbr 210 ------- 0 1.0 3.1 55 55
r 1.20974 2 3 cbr 210 ------- 0 1.0 3.1 50 50
r 1.20987 1 2 cbr 210 ------- 0 1.0 3.1 53 53
+ 1.20987 2 3 cbr 210 ------- 0 1.0 3.1 53 53
- 1.20987 2 3 cbr 210 ------- 0 1.0 3.1 53 53
+ 1.21 1 2 cbr 210 ------- 0 1.0 3.1 56 56
- 1.21 1 2 cbr 210 ------- 0 1.0 3.1 56 56
r 1.21349 2 3 cbr 210 ------- 0 1.0 3.1 51 51
r 1.21362 1 2 cbr 210 ------- 0 1.0 3.1 54 54
+ 1.21362 2 3 cbr 210 ------- 0 1.0 3.1 54 54
- 1.21362 2 3 cbr 210 ------- 0 1.0 3.1 54 54
+ 1.21375 1 2 cbr 210 ------- 0 1.0 3.1 57 57
- 1.21375 1 2 cbr 210 ------- 0 1.0 3.1 57 57
r 1.21724 2 3 cbr 210 ------- 0 1.0 3.1 52 52
r 1.21737 1 2 cbr 210 ------- 0 1.0 3.1 55 55
+ 1.21737 2 3 cbr 210 ------- 0 1.0 3.1 55 55
- 1.21737 2 3 cbr 210 ------- 0 1.0 3.1 55 55
+ 1.2175 1 2 cbr 210 ------- 0 1.0 3.1 58 58
- 1.2175 1 2 cbr 210 ------- 0 1.0 3.1 58 58
r 1.22099 2 3 cbr 210 ------- 0 1.0 3.1 53 53
r 1.22112 1 2 cbr 210 ------- 0 1.0 3.1 56 56
+ 1.22112 2 3 cbr 210 ------- 0 1.0 3.1 56 56
- 1.22112 2 3 cbr 210 ------- 0 1.0 3.1 56 56
+ 1.22125 1 2 cbr 210 ------- 0 1.0 3.1 59 59
- 1.22125 1 2 cbr 210 ------- 0 1.0 3.1 59 59
r 1.22474 2 3 cbr 210 ------- 0 1.0 3.1 54 54
r 1.22487 1 2 cbr 210 ------- 0 1.0 3.1 57 57
+ 1.22487 2 3 cbr 210 ------- 0 1.0 3.1 57 57
- 1.22487 2 3 cbr 210 ------- 0 1.0 3.1 57 57
+ 1.225 1 2 cbr 210 ------- 0 1.0 3.1 60 60
- 1.225 1 2 cbr 210 ------- 0 1.0 3.1 60 60
r 1.22849 2 3 cbr 210 ------- 0 1.0 3.1 55 55
r 1.22862 1 2 cbr 210 ------- 0 1.0 3.1 58 58
+ 1.22862 2 3 cbr 210 ------- 0 1.0 3.1 58 58
- 1.22862 2 3 cbr 210 ------- 0 1.0 3.1 58 58
+ 1.22875 1 2 cbr 210 ------- 0 1.0 3.1 61 61
- 1.22875 1 2 cbr 210 ------- 0 1.0 3.1 61 61
r 1.23224 2 3 cbr 210 ------- 0 1.0 3.1 56 56
r 1.23237 1 2 cbr 210 ------- 0 1.0 3.1 59 59
+ 1.23237 2 3 cbr 210 ------- 0 1.0 3.1 59 59
- 1.23237 2 3 cbr 210 ------- 0 1.0 3.1 59 59
+ 1.2325 1 2 cbr 210 ------- 0 1.0 3.1 62 62
- 1.2325 1 2 cbr 210 ------- 0 1.0 3.1 62 62
r 1.23599 2 3 cbr 210 ------- 0 1.0 3.1 57 57
r 1.23612 1 2 cbr 210 ------- 0 1.0 3.1 60 60
+ 1.23612 2 3 cbr 210 ------- 0 1.0 3.1 60 60
- 1.23612 2 3 cbr 210 ------- 0 1.0 3.1 60 60
+ 1.23625 1 2 cbr 210 ------- 0 1.0 3.1 63 63
- 1.23625 1 2 cbr 210 ------- 0 1.0 3.1 63 63
r 1.23974 2 3 cbr 210 ------- 0 1.0 3.1 58 58
r 1.23987 1 2 cbr 210 ------- 0 1.0 3.1 61 61
+ 1.23987 2 3 cbr 210 ------- 0 1.0 3.1 61 61
- 1.23987 2 3 cbr 210 ------- 0 1.0 3.1 61 61
+ 1.24 1 2 cbr 210 ------- 0 1.0 3.1 64 64
- 1.24 1 2 cbr 210 ------- 0 1.0 3.1 64 64
r 1.24349 2 3 cbr 210 ------- 0 1.0 3.1 59 59
r 1.24362 1 2 cbr 210 ------- 0 1.0 3.1 62 62
+ 1.24362 2 3 cbr 210 ------- 0 1.0 3.1 62 62
- 1.24362 2 3 cbr 210 ------- 0 1.0 3.1 62 62
+ 1.24375 1 2 cbr 210 ------- 0 1.0 3.1 65 65
- 1.24375 1 2 cbr 210 ------- 0 1.0 3.1 65 65
r 1.24724 2 3 cbr 210 ------- 0 1.0 3.1 60 60
r 1.24737 1 2 cbr 210 ------- 0 1.0 3.1 63 63
+ 1.24737 2 3 cbr 210 ------- 0 1.0 3.1 63 63
- 1.24737 2 3 cbr 210 ------- 0 1.0 3.1 63 63
+ 1.2475 1 2 cbr 210 ------- 0 1.0 3.1 66 66
- 1.2475 1 2 cbr 210 ------- 0 1.0 3.1 66 66
r 1.25099 2 3 cbr 210 ------- 0 1.0 3.1 61 61
r 1.25112 1 2 cbr 210 ------- 0 1.0 3.1 64 64
+ 1.25112 2 3 cbr 210 ------- 0 1.0 3.1 64 64
- 1.25112 2 3 cbr 210 ------- 0 1.0 3.1 64 64
+ 1.25125 1 2 cbr 210 ------- 0 1.0 3.1 67 67
- 1.25125 1 2 cbr 210 ------- 0 1.0 3.1 67 67
r 1.25474 2 3 cbr 210 ------- 0 1.0 3.1 62 62
r 1.25487 1 2 cbr 210 ------- 0 1.0 3.1 65 65
+ 1.25487 2 3 cbr 210 ------- 0 1.0 3.1 65 65
- 1.25487 2 3 cbr 210 ------- 0 1.0 3.1 65 65
+ 1.255 1 2 cbr 210 ------- 0 1.0 3.1 68 68
- 1.255 1 2 cbr 210 ------- 0 1.0 3.1 68 68
r 1.25849 2 3 cbr 210 ------- 0 1.0 3.1 63 63
r 1.25862 1 2 cbr 210 ------- 0 1.0 3.1 66 66
+ 1.25862 2 3 cbr 210 ------- 0 1.0 3.1 66 66
- 1.25862 2 3 cbr 210 ------- 0 1.0 3.1 66 66
+ 1.25875 1 2 cbr 210 ------- 0 1.0 3.1 69 69
- 1.25875 1 2 cbr 210 ------- 0 1.0 3.1 69 69
r 1.26224 2 3 cbr 210 ------- 0 1.0 3.1 64 64
r 1.26237 1 2 cbr 210 ------- 0 1.0 3.1 67 67
+ 1.26237 2 3 cbr 210 ------- 0 1.0 3.1 67 67
- 1.26237 2 3 cbr 210 ------- 0 1.0 3.1 67 67
+ 1.2625 1 2 cbr 210 ------- 0 1.0 3.1 70 70
- 1.2625 1 2 cbr 210 ------- 0 1.0 3.1 70 70
r 1.26599 2 3 cbr 210 ------- 0 1.0 3.1 65 65
r 1.26612 1 2 cbr 210 ------- 0 1.0 3.1 68 68
+ 1.26612 2 3 cbr 210 ------- 0 1.0 3.1 68 68
- 1.26612 2 3 cbr 210 ------- 0 1.0 3.1 68 68
+ 1.26625 1 2 cbr 210 ------- 0 1.0 3.1 71 71
- 1.26625 1 2 cbr 210 ------- 0 1.0 3.1 71 71
r 1.26974 2 3 cbr 210 ------- 0 1.0 3.1 66 66
r 1.26987 1 2 cbr 210 ------- 0 1.0 3.1 69 69
+ 1.26987 2 3 cbr 210 ------- 0 1.0 3.1 69 69
- 1.26987 2 3 cbr 210 ------- 0 1.0 3.1 69 69
+ 1.27 1 2 cbr 210 ------- 0 1.0 3.1 72 72
- 1.27 1 2 cbr 210 ------- 0 1.0 3.1 72 72
r 1.27349 2 3 cbr 210 ------- 0 1.0 3.1 67 67
r 1.27362 1 2 cbr 210 ------- 0 1.0 3.1 70 70
+ 1.27362 2 3 cbr 210 ------- 0 1.0 3.1 70 70
- 1.27362 2 3 cbr 210 ------- 0 1.0 3.1 70 70
+ 1.27375 1 2 cbr 210 ------- 0 1.0 3.1 73 73
- 1.27375 1 2 cbr 210 ------- 0 1.0 3.1 73 73
r 1.27724 2 3 cbr 210 ------- 0 1.0 3.1 68 68
r 1.27737 1 2 cbr 210 ------- 0 1.0 3.1 71 71
+ 1.27737 2 3 cbr 210 ------- 0 1.0 3.1 71 71
- 1.27737 2 3 cbr 210 ------- 0 1.0 3.1 71 71
+ 1.2775 1 2 cbr 210 ------- 0 1.0 3.1 74 74
- 1.2775 1 2 cbr 210 ------- 0 1.0 3.1 74 74
r 1.28099 2 3 cbr 210 ------- 0 1.0 3.1 69 69
r 1.28112 1 2 cbr 210 ------- 0 1.0 3.1 72 72
+ 1.28112 2 3 cbr 210 ------- 0 1.0 3.1 72 72
- 1.28112 2 3 cbr 210 ------- 0 1.0 3.1 72 72
+ 1.28125 1 2 cbr 210 ------- 0 1.0 3.1 75 75
- 1.28125 1 2 cbr 210 ------- 0 1.0 3.1 75 75
r 1.28474 2 3 cbr 210 ------- 0 1.0 3.1 70 70
r 1.28487 1 2 cbr 210 ------- 0 1.0 3.1 73 73
+ 1.28487 2 3 cbr 210 ------- 0 1.0 3.1 73 73
- 1.28487 2 3 cbr 210 ------- 0 1.0 3.1 73 73
+ 1.285 1 2 cbr 210 ------- 0 1.0 3.1 76 76
- 1.285 1 2 cbr 210 ------- 0 1.0 3.1 76 76
r 1.28849 2 3 cbr 210 ------- 0 1.0 3.1 71 71
r 1.28862 1 2 cbr 210 ------- 0 1.0 3.1 74 74
+ 1.28862 2 3 cbr 210 ------- 0 1.0 3.1 74 74
- 1.28862 2 3 cbr 210 ------- 0 1.0 3.1 74 74
+ 1.28875 1 2 cbr 210 ------- 0 1.0 3.1 77 77
- 1.28875 1 2 cbr 210 ------- 0 1.0 3.1 77 77
r 1.29224 2 3 cbr 210 ------- 0 1.0 3.1 72 72
r 1.29237 1 2 cbr 210 ------- 0 1.0 3.1 75 75
+ 1.29237 2 3 cbr 210 ------- 0 1.0 3.1 75 75
- 1.29237 2 3 cbr 210 ------- 0 1.0 3.1 75 75
+ 1.2925 1 2 cbr 210 ------- 0 1.0 3.1 78 78
- 1.2925 1 2 cbr 210 ------- 0 1.0 3.1 78 78
r 1.29599 2 3 cbr 210 ------- 0 1.0 3.1 73 73
r 1.29612 1 2 cbr 210 ------- 0 1.0 3.1 76 76
+ 1.29612 2 3 cbr 210 ------- 0 1.0 3.1 76 76
- 1.29612 2 3 cbr 210 ------- 0 1.0 3.1 76 76
+ 1.29625 1 2 cbr 210 ------- 0 1.0 3.1 79 79
- 1.29625 1 2 cbr 210 ------- 0 1.0 3.1 79 79
r 1.29974 2 3 cbr 210 ------- 0 1.0 3.1 74 74
r 1.29987 1 2 cbr 210 ------- 0 1.0 3.1 77 77
+ 1.29987 2 3 cbr 210 ------- 0 1.0 3.1 77 77
- 1.29987 2 3 cbr 210 ------- 0 1.0 3.1 77 77
+ 1.3 1 2 cbr 210 ------- 0 1.0 3.1 80 80
- 1.3 1 2 cbr 210 ------- 0 1.0 3.1 80 80
r 1.30349 2 3 cbr 210 ------- 0 1.0 3.1 75 75
r 1.30362 1 2 cbr 210 ------- 0 1.0 3.1 78 78
+ 1.30362 2 3 cbr 210 ------- 0 1.0 3.1 78 78
- 1.30362 2 3 cbr 210 ------- 0 1.0 3.1 78 78
+ 1.30375 1 2 cbr 210 ------- 0 1.0 3.1 81 81
- 1.30375 1 2 cbr 210 ------- 0 1.0 3.1 81 81
r 1.30724 2 3 cbr 210 ------- 0 1.0 3.1 76 76
r 1.30737 1 2 cbr 210 ------- 0 1.0 3.1 79 79
+ 1.30737 2 3 cbr 210 ------- 0 1.0 3.1 79 79
- 1.30737 2 3 cbr 210 ------- 0 1.0 3.1 79 79
+ 1.3075 1 2 cbr 210 ------- 0 1.0 3.1 82 82
- 1.3075 1 2 cbr 210 ------- 0 1.0 3.1 82 82
r 1.31099 2 3 cbr 210 ------- 0 1.0 3.1 77 77
r 1.31112 1 2 cbr 210 ------- 0 1.0 3.1 80 80
+ 1.31112 2 3 cbr 210 ------- 0 1.0 3.1 80 80
- 1.31112 2 3 cbr 210 ------- 0 1.0 3.1 80 80
+ 1.31125 1 2 cbr 210 ------- 0 1.0 3.1 83 83
- 1.31125 1 2 cbr 210 ------- 0 1.0 3.1 83 83
r 1.31474 2 3 cbr 210 ------- 0 1.0 3.1 78 78
r 1.31487 1 2 cbr 210 ------- 0 1.0 3.1 81 81
+ 1.31487 2 3 cbr 210 ------- 0 1.0 3.1 81 81
- 1.31487 2 3 cbr 210 ------- 0 1.0 3.1 81 81
+ 1.315 1 2 cbr 210 ------- 0 1.0 3.1 84 84
- 1.315 1 2 cbr 210 ------- 0 1.0 3.1 84 84
r 1.31849 2 3 cbr 210 ------- 0 1.0 3.1 79 79
r 1.31862 1 2 cbr 210 ------- 0 1.0 3.1 82 82
+ 1.31862 2 3 cbr 210 ------- 0 1.0 3.1 82 82
- 1.31862 2 3 cbr 210 ------- 0 1.0 3.1 82 82
+ 1.31875 1 2 cbr 210 ------- 0 1.0 3.1 85 85
- 1.31875 1 2 cbr 210 ------- 0 1.0 3.1 85 85
r 1.32224 2 3 cbr 210 ------- 0 1.0 3.1 80 80
r 1.32237 1 2 cbr 210 ------- 0 1.0 3.1 83 83
+ 1.32237 2 3 cbr 210 ------- 0 1.0 3.1 83 83
- 1.32237 2 3 cbr 210 ------- 0 1.0 3.1 83 83
+ 1.3225 1 2 cbr 210 ------- 0 1.0 3.1 86 86
- 1.3225 1 2 cbr 210 ------- 0 1.0 3.1 86 86
r 1.32599 2 3 cbr 210 ------- 0 1.0 3.1 81 81
r 1.32612 1 2 cbr 210 ------- 0 1.0 3.1 84 84
+ 1.32612 2 3 cbr 210 ------- 0 1.0 3.1 84 84
- 1.32612 2 3 cbr 210 ------- 0 1.0 3.1 84 84
+ 1.32625 1 2 cbr 210 ------- 0 1.0 3.1 87 87
- 1.32625 1 2 cbr 210 ------- 0 1.0 3.1 87 87
r 1.32974 2 3 cbr 210 ------- 0 1.0 3.1 82 82
r 1.32987 1 2 cbr 210 ------- 0 1.0 3.1 85 85
+ 1.32987 2 3 cbr 210 ------- 0 1.0 3.1 85 85
- 1.32987 2 3 cbr 210 ------- 0 1.0 3.1 85 85
+ 1.33 1 2 cbr 210 ------- 0 1.0 3.1 88 88
- 1.33 1 2 cbr 210 ------- 0 1.0 3.1 88 88
r 1.33349 2 3 cbr 210 ------- 0 1.0 3.1 83 83
r 1.33362 1 2 cbr 210 ------- 0 1.0 3.1 86 86
+ 1.33362 2 3 cbr 210 ------- 0 1.0 3.1 86 86
- 1.33362 2 3 cbr 210 ------- 0 1.0 3.1 86 86
+ 1.33375 1 2 cbr 210 ------- 0 1.0 3.1 89 89
- 1.33375 1 2 cbr 210 ------- 0 1.0 3.1 89 89
r 1.33724 2 3 cbr 210 ------- 0 1.0 3.1 84 84
r 1.33737 1 2 cbr 210 ------- 0 1.0 3.1 87 87
+ 1.33737 2 3 cbr 210 ------- 0 1.0 3.1 87 87
- 1.33737 2 3 cbr 210 ------- 0 1.0 3.1 87 87
+ 1.3375 1 2 cbr 210 ------- 0 1.0 3.1 90 90
- 1.3375 1 2 cbr 210 ------- 0 1.0 3.1 90 90
r 1.34099 2 3 cbr 210 ------- 0 1.0 3.1 85 85
r 1.34112 1 2 cbr 210 ------- 0 1.0 3.1 88 88
+ 1.34112 2 3 cbr 210 ------- 0 1.0 3.1 88 88
- 1.34112 2 3 cbr 210 ------- 0 1.0 3.1 88 88
+ 1.34125 1 2 cbr 210 ------- 0 1.0 3.1 91 91
- 1.34125 1 2 cbr 210 ------- 0 1.0 3.1 91 91
r 1.34474 2 3 cbr 210 ------- 0 1.0 3.1 86 86
r 1.34487 1 2 cbr 210 ------- 0 1.0 3.1 89 89
+ 1.34487 2 3 cbr 210 ------- 0 1.0 3.1 89 89
- 1.34487 2 3 cbr 210 ------- 0 1.0 3.1 89 89
+ 1.345 1 2 cbr 210 ------- 0 1.0 3.1 92 92
- 1.345 1 2 cbr 210 ------- 0 1.0 3.1 92 92
r 1.34849 2 3 cbr 210 ------- 0 1.0 3.1 87 87
r 1.34862 1 2 cbr 210 ------- 0 1.0 3.1 90 90
+ 1.34862 2 3 cbr 210 ------- 0 1.0 3.1 90 90
- 1.34862 2 3 cbr 210 ------- 0 1.0 3.1 90 90
+ 1.34875 1 2 cbr 210 ------- 0 1.0 3.1 93 93
- 1.34875 1 2 cbr 210 ------- 0 1.0 3.1 93 93
r 1.35224 2 3 cbr 210 ------- 0 1.0 3.1 88 88
r 1.35237 1 2 cbr 210 ------- 0 1.0 3.1 91 91
+ 1.35237 2 3 cbr 210 ------- 0 1.0 3.1 91 91
- 1.35237 2 3 cbr 210 ------- 0 1.0 3.1 91 91
+ 1.3525 1 2 cbr 210 ------- 0 1.0 3.1 94 94
- 1.3525 1 2 cbr 210 ------- 0 1.0 3.1 94 94
r 1.35599 2 3 cbr 210 ------- 0 1.0 3.1 89 89
r 1.35612 1 2 cbr 210 ------- 0 1.0 3.1 92 92
+ 1.35612 2 3 cbr 210 ------- 0 1.0 3.1 92 92
- 1.35612 2 3 cbr 210 ------- 0 1.0 3.1 92 92
+ 1.35625 1 2 cbr 210 ------- 0 1.0 3.1 95 95
- 1.35625 1 2 cbr 210 ------- 0 1.0 3.1 95 95
r 1.35974 2 3 cbr 210 ------- 0 1.0 3.1 90 90
r 1.35987 1 2 cbr 210 ------- 0 1.0 3.1 93 93
+ 1.35987 2 3 cbr 210 ------- 0 1.0 3.1 93 93
- 1.35987 2 3 cbr 210 ------- 0 1.0 3.1 93 93
+ 1.36 1 2 cbr 210 ------- 0 1.0 3.1 96 96
- 1.36 1 2 cbr 210 ------- 0 1.0 3.1 96 96
r 1.36349 2 3 cbr 210 ------- 0 1.0 3.1 91 91
r 1.36362 1 2 cbr 210 ------- 0 1.0 3.1 94 94
+ 1.36362 2 3 cbr 210 ------- 0 1.0 3.1 94 94
- 1.36362 2 3 cbr 210 ------- 0 1.0 3.1 94 94
+ 1.36375 1 2 cbr 210 ------- 0 1.0 3.1 97 97
- 1.36375 1 2 cbr 210 ------- 0 1.0 3.1 97 97
r 1.36724 2 3 cbr 210 ------- 0 1.0 3.1 92 92
r 1.36737 1 2 cbr 210 ------- 0 1.0 3.1 95 95
+ 1.36737 2 3 cbr 210 ------- 0 1.0 3.1 95 95
- 1.36737 2 3 cbr 210 ------- 0 1.0 3.1 95 95
+ 1.3675 1 2 cbr 210 ------- 0 1.0 3.1 98 98
- 1.3675 1 2 cbr 210 ------- 0 1.0 3.1 98 98
r 1.37099 2 3 cbr 210 ------- 0 1.0 3.1 93 93
r 1.37112 1 2 cbr 210 ------- 0 1.0 3.1 96 96
+ 1.37112 2 3 cbr 210 ------- 0 1.0 3.1 96 96
- 1.37112 2 3 cbr 210 ------- 0 1.0 3.1 96 96
+ 1.37125 1 2 cbr 210 ------- 0 1.0 3.1 99 99
- 1.37125 1 2 cbr 210 ------- 0 1.0 3.1 99 99
r 1.37474 2 3 cbr 210 ------- 0 1.0 3.1 94 94
r 1.37487 1 2 cbr 210 ------- 0 1.0 3.1 97 97
+ 1.37487 2 3 cbr 210 ------- 0 1.0 3.1 97 97
- 1.37487 2 3 cbr 210 ------- 0 1.0 3.1 97 97
+ 1.375 1 2 cbr 210 ------- 0 1.0 3.1 100 100
- 1.375 1 2 cbr 210 ------- 0 1.0 3.1 100 100
r 1.37849 2 3 cbr 210 ------- 0 1.0 3.1 95 95
r 1.37862 1 2 cbr 210 ------- 0 1.0 3.1 98 98
+ 1.37862 2 3 cbr 210 ------- 0 1.0 3.1 98 98
- 1.37862 2 3 cbr 210 ------- 0 1.0 3.1 98 98
+ 1.37875 1 2 cbr 210 ------- 0 1.0 3.1 101 101
- 1.37875 1 2 cbr 210 ------- 0 1.0 3.1 101 101
r 1.38224 2 3 cbr 210 ------- 0 1.0 3.1 96 96
r 1.38237 1 2 cbr 210 ------- 0 1.0 3.1 99 99
+ 1.38237 2 3 cbr 210 ------- 0 1.0 3.1 99 99
- 1.38237 2 3 cbr 210 ------- 0 1.0 3.1 99 99
+ 1.3825 1 2 cbr 210 ------- 0 1.0 3.1 102 102
- 1.3825 1 2 cbr 210 ------- 0 1.0 3.1 102 102
r 1.38599 2 3 cbr 210 ------- 0 1.0 3.1 97 97
r 1.38612 1 2 cbr 210 ------- 0 1.0 3.1 100 100
+ 1.38612 2 3 cbr 210 ------- 0 1.0 3.1 100 100
- 1.38612 2 3 cbr 210 ------- 0 1.0 3.1 100 100
+ 1.38625 1 2 cbr 210 ------- 0 1.0 3.1 103 103
- 1.38625 1 2 cbr 210 ------- 0 1.0 3.1 103 103
r 1.38974 2 3 cbr 210 ------- 0 1.0 3.1 98 98
r 1.38987 1 2 cbr 210 ------- 0 1.0 3.1 101 101
+ 1.38987 2 3 cbr 210 ------- 0 1.0 3.1 101 101
- 1.38987 2 3 cbr 210 ------- 0 1.0 3.1 101 101
+ 1.39 1 2 cbr 210 ------- 0 1.0 3.1 104 104
- 1.39 1 2 cbr 210 ------- 0 1.0 3.1 104 104
r 1.39349 2 3 cbr 210 ------- 0 1.0 3.1 99 99
r 1.39362 1 2 cbr 210 ------- 0 1.0 3.1 102 102
+ 1.39362 2 3 cbr 210 ------- 0 1.0 3.1 102 102
- 1.39362 2 3 cbr 210 ------- 0 1.0 3.1 102 102
+ 1.39375 1 2 cbr 210 ------- 0 1.0 3.1 105 105
- 1.39375 1 2 cbr 210 ------- 0 1.0 3.1 105 105
r 1.39724 2 3 cbr 210 ------- 0 1.0 3.1 100 100
r 1.39737 1 2 cbr 210 ------- 0 1.0 3.1 103 103
+ 1.39737 2 3 cbr 210 ------- 0 1.0 3.1 103 103
- 1.39737 2 3 cbr 210 ------- 0 1.0 3.1 103 103
+ 1.3975 1 2 cbr 210 ------- 0 1.0 3.1 106 106
- 1.3975 1 2 cbr 210 ------- 0 1.0 3.1 106 106
r 1.40099 2 3 cbr 210 ------- 0 1.0 3.1 101 101
r 1.40112 1 2 cbr 210 ------- 0 1.0 3.1 104 104
+ 1.40112 2 3 cbr 210 ------- 0 1.0 3.1 104 104
- 1.40112 2 3 cbr 210 ------- 0 1.0 3.1 104 104
+ 1.40125 1 2 cbr 210 ------- 0 1.0 3.1 107 107
- 1.40125 1 2 cbr 210 ------- 0 1.0 3.1 107 107
r 1.40474 2 3 cbr 210 ------- 0 1.0 3.1 102 102
r 1.40487 1 2 cbr 210 ------- 0 1.0 3.1 105 105
+ 1.40487 2 3 cbr 210 ------- 0 1.0 3.1 105 105
- 1.40487 2 3 cbr 210 ------- 0 1.0 3.1 105 105
+ 1.405 1 2 cbr 210 ------- 0 1.0 3.1 108 108
- 1.405 1 2 cbr 210 ------- 0 1.0 3.1 108 108
r 1.40849 2 3 cbr 210 ------- 0 1.0 3.1 103 103
r 1.40862 1 2 cbr 210 ------- 0 1.0 3.1 106 106
+ 1.40862 2 3 cbr 210 ------- 0 1.0 3.1 106 106
- 1.40862 2 3 cbr 210 ------- 0 1.0 3.1 106 106
+ 1.40875 1 2 cbr 210 ------- 0 1.0 3.1 109 109
- 1.40875 1 2 cbr 210 ------- 0 1.0 3.1 109 109
r 1.41224 2 3 cbr 210 ------- 0 1.0 3.1 104 104
r 1.41237 1 2 cbr 210 ------- 0 1.0 3.1 107 107
+ 1.41237 2 3 cbr 210 ------- 0 1.0 3.1 107 107
- 1.41237 2 3 cbr 210 ------- 0 1.0 3.1 107 107
+ 1.4125 1 2 cbr 210 ------- 0 1.0 3.1 110 110
- 1.4125 1 2 cbr 210 ------- 0 1.0 3.1 110 110
r 1.41599 2 3 cbr 210 ------- 0 1.0 3.1 105 105
r 1.41612 1 2 cbr 210 ------- 0 1.0 3.1 108 108
+ 1.41612 2 3 cbr 210 ------- 0 1.0 3.1 108 108
- 1.41612 2 3 cbr 210 ------- 0 1.0 3.1 108 108
+ 1.41625 1 2 cbr 210 ------- 0 1.0 3.1 111 111