V -t * -v 1.0a5 -a 0
A -t * -n 1 -p 0 -o 0x7fffffff -c 30 -a 1
A -t * -h 1 -m 1073741823 -s 0
n -t * -a 0 -s 0 -S UP -v circle -c black -i black
n -t * -a 1 -s 1 -S UP -v circle -c black -i black
n -t * -a 2 -s 2 -S UP -v circle -c black -i black
n -t * -a 3 -s 3 -S UP -v circle -c black -i black
l -t * -s 0 -d 1 -S UP -r 1000000 -D 0.01 -c black
l -t * -s 1 -d 2 -S UP -r 1000000 -D 0.01 -c black
l -t * -s 2 -d 3 -S UP -r 1000000 -D 0.01 -c black
+ -t 1 -s 0 -d 1 -p tcp -e 40 -c 0 -i 0 -a 0 -x {0.0 1.0 0 ------- null}
- -t 1 -s 0 -d 1 -p tcp -e 40 -c 0 -i 0 -a 0 -x {0.0 1.0 0 ------- null}
h -t 1 -s 0 -d 1 -p tcp -e 40 -c 0 -i 0 -a 0 -x {0.0 1.0 -1 ------- null}
r -t 1.01032 -s 0 -d 1 -p tcp -e 40 -c 0 -i 0 -a 0 -x {0.0 1.0 0 ------- null}
+ -t 1.01032 -s 1 -d 0 -p ack -e 40 -c 0 -i 1 -a 0 -x {1.0 0.0 0 ------- null}
- -t 1.01032 -s 1 -d 0 -p ack -e 40 -c 0 -i 1 -a 0 -x {1.0 0.0 0 ------- null}
h -t 1.01032 -s 1 -d 0 -p ack -e 40 -c 0 -i 1 -a 0 -x {1.0 0.0 -1 ------- null}
r -t 1.02064 -s 1 -d 0 -p ack -e 40 -c 0 -i 1 -a 0 -x {1.0 0.0 0 ------- null}
+ -t 1.02064 -s 0 -d 1 -p tcp -e 1040 -c 0 -i 2 -a 0 -x {0.0 1.0 1 ------- null}
- -t 1.02064 -s 0 -d 1 -p tcp -e 1040 -c 0 -i 2 -a 0 -x {0.0 1.0 1 ------- null}
h -t 1.02064 -s 0 -d 1 -p tcp -e 1040 -c 0 -i 2 -a 0 -x {0.0 1.0 -1 ------- null}
+ -t 1.02064 -s 0 -d 1 -p tcp -e 1040 -c 0 -i 3 -a 0 -x {0.0 1.0 2 ------- null}
- -t 1.02896 -s 0 -d 1 -p tcp -e 1040 -c 0 -i 3 -a 0 -x {0.0 1.0 2 ------- null}
h -t 1.02896 -s 0 -d 1 -p tcp -e 1040 -c 0 -i 3 -a 0 -x {0.0 1.0 -1 ------- null}
r -t 1.03896 -s 0 -d 1 -p tcp -e 1040 -c 0 -i 2 -a 0 -x {0.0 1.0 1 ------- null}
+ -t 1.03896 -s 1 -d 0 -p ack -e 40 -c 0 -i 4 -a 0 -x {1.0 0.0 1 ------- null}
- -t 1.03896 -s 1 -d 0 -p ack -e 40 -c 0 -i 4 -a 0 -x {1.0 0.0 1 ------- null}
h -t 1.03896 -s 1 -d 0 -p ack -e 40 -c 0 -i 4 -a 0 -x {1.0 0.0 -1 ------- null}
r -t 1.04728 -s 0 -d 1 -p tcp -e 1040 -c 0 -i 3 -a 0 -x {0.0 1.0 2 ------- null}
+ -t 1.04728 -s 1 -d 0 -p ack -e 40 -c 0 -i 5 -a 0 -x {1.0 0.0 2 ------- null}
- -t 1.04728 -s 1 -d 0 -p ack -e 40 -c 0 -i 5 -a 0 -x {1.0 0.0 2 ------- null}
h -t 1.04728 -s 1 -d 0 -p ack -e 40 -c 0 -i 5 -a 0 -x {1.0 0.0 -1 ------- null}
r -t 1.04928 -s 1 -d 0 -p ack -e 40 -c 0 -i 4 -a 0 -x {1.0 0.0 1 ------- null}
+ -t 1.04928 -s 0 -d 1 -p tcp -e 1040 -c 0 -i 6 -a 0 -x {0.0 1.0 3 ------- null}
- -t 1.04928 -s 0 -d 1 -p tcp -e 1040 -c 0 -i 6 -a 0 -x {0.0 1.0 3 ------- null}
h -t 1.04928 -s 0 -d 1 -p tcp -e 1040 -c 0 -i 6 -a 0 -x {0.0 1.0 -1 ------- null}
+ -t 1.04928 -s 0 -d 1 -p tcp -e 1040 -c 0 -i 7 -a 0 -x {0.0 1.0 4 ------- null}
r -t 1.0576 -s 1 -d 0 -p ack -e 40 -c 0 -i 5 -a 0 -x {1.0 0.0 2 ------- null}
+ -t 1.0576 -s 0 -d 1 -p tcp -e 1040 -c 0 -i 8 -a 0 -x {0.0 1.0 5 ------- null}
+ -t 1.0576 -s 0 -d 1 -p tcp -e 1040 -c 0 -i 9 -a 0 -x {0.0 1.0 6 ------- null}
- -t 1.0576 -s 0 -d 1 -p tcp -e 1040 -c 0 -i 7 -a 0 -x {0.0 1.0 4 ------- null}
h -t 1.0576 -s 0 -d 1 -p tcp -e 1040 -c 0 -i 7 -a 0 -x {0.0 1.0 -1 ------- null}
- -t 1.06592 -s 0 -d 1 -p tcp -e 1040 -c 0 -i 8 -a 0 -x {0.0 1.0 5 ------- null}
h -t 1.06592 -s 0 -d 1 -p tcp -e 1040 -c 0 -i 8 -a 0 -x {0.0 1.0 -1 ------- null}
r -t 1.0676 -s 0 -d 1 -p tcp -e 1040 -c 0 -i 6 -a 0 -x {0.0 1.0 3 ------- null}
+ -t 1.0676 -s 1 -d 0 -p ack -e 40 -c 0 -i 10 -a 0 -x {1.0 0.0 3 ------- null}
- -t 1.0676 -s 1 -d 0 -p ack -e 40 -c 0 -i 10 -a 0 -x {1.0 0.0 3 ------- null}
h -t 1.0676 -s 1 -d 0 -p ack -e 40 -c 0 -i 10 -a 0 -x {1.0 0.0 -1 ------- null}
- -t 1.07424 -s 0 -d 1 -p tcp -e 1040 -c 0 -i 9 -a 0 -x {0.0 1.0 6 ------- null}
h -t 1.07424 -s 0 -d 1 -p tcp -e 1040 -c 0 -i 9 -a 0 -x {0.0 1.0 -1 ------- null}
r -t 1.07592 -s 0 -d 1 -p tcp -e 1040 -c 0 -i 7 -a 0 -x {0.0 1.0 4 ------- null}
+ -t 1.07592 -s 1 -d 0 -p ack -e 40 -c 0 -i 11 -a 0 -x {1.0 0.0 4 ------- null}
- -t 1.07592 -s 1 -d 0 -p ack -e 40 -c 0 -i 11 -a 0 -x {1.0 0.0 4 ------- null}
h -t 1.07592 -s 1 -d 0 -p ack -e 40 -c 0 -i 11 -a 0 -x {1.0 0.0 -1 ------- null}
r -t 1.07792 -s 1 -d 0 -p ack -e 40 -c 0 -i 10 -a 0 -x {1.0 0.0 3 ------- null}
+ -t 1.07792 -s 0 -d 1 -p tcp -e 1040 -c 0 -i 12 -a 0 -x {0.0 1.0 7 ------- null}
+ -t 1.07792 -s 0 -d 1 -p tcp -e 1040 -c 0 -i 13 -a 0 -x {0.0 1.0 8 ------- null}
- -t 1.08256 -s 0 -d 1 -p tcp -e 1040 -c 0 -i 12 -a 0 -x {0.0 1.0 7 ------- null}
h -t 1.08256 -s 0 -d 1 -p tcp -e 1040 -c 0 -i 12 -a 0 -x {0.0 1.0 -1 ------- null}
r -t 1.08424 -s 0 -d 1 -p tcp -e 1040 -c 0 -i 8 -a 0 -x {0.0 1.0 5 ------- null}
+ -t 1.08424 -s 1 -d 0 -p ack -e 40 -c 0 -i 14 -a 0 -x {1.0 0.0 5 ------- null}
- -t 1.08424 -s 1 -d 0 -p ack -e 40 -c 0 -i 14 -a 0 -x {1.0 0.0 5 ------- null}
h -t 1.08424 -s 1 -d 0 -p ack -e 40 -c 0 -i 14 -a 0 -x {1.0 0.0 -1 ------- null}
r -t 1.08624 -s 1 -d 0 -p ack -e 40 -c 0 -i 11 -a 0 -x {1.0 0.0 4 ------- null}
+ -t 1.08624 -s 0 -d 1 -p tcp -e 1040 -c 0 -i 15 -a 0 -x {0.0 1.0 9 ------- null}
+ -t 1.08624 -s 0 -d 1 -p tcp -e 1040 -c 0 -i 16 -a 0 -x {0.0 1.0 10 ------- null}
- -t 1.09088 -s 0 -d 1 -p tcp -e 1040 -c 0 -i 13 -a 0 -x {0.0 1.0 8 ------- null}
h -t 1.09088 -s 0 -d 1 -p tcp -e 1040 -c 0 -i 13 -a 0 -x {0.0 1.0 -1 ------- null}
r -t 1.09256 -s 0 -d 1 -p tcp -e 1040 -c 0 -i 9 -a 0 -x {0.0 1.0 6 ------- null}
+ -t 1.09256 -s 1 -d 0 -p ack -e 40 -c 0 -i 17 -a 0 -x {1.0 0.0 6 ------- null}
- -t 1.09256 -s 1 -d 0 -p ack -e 40 -c 0 -i 17 -a 0 -x {1.0 0.0 6 ------- null}
h -t 1.09256 -s 1 -d 0 -p ack -e 40 -c 0 -i 17 -a 0 -x {1.0 0.0 -1 ------- null}
r -t 1.09456 -s 1 -d 0 -p ack -e 40 -c 0 -i 14 -a 0 -x {1.0 0.0 5 ------- null}
+ -t 1.09456 -s 0 -d 1 -p tcp -e 1040 -c 0 -i 18 -a 0 -x {0.0 1.0 11 ------- null}
+ -t 1.09456 -s 0 -d 1 -p tcp -e 1040 -c 0 -i 19 -a 0 -x {0.0 1.0 12 ------- null}
- -t 1.0992 -s 0 -d 1 -p tcp -e 1040 -c 0 -i 15 -a 0 -x {0.0 1.0 9 ------- null}
h -t 1.0992 -s 0 -d 1 -p tcp -e 1040 -c 0 -i 15 -a 0 -x {0.0 1.0 -1 ------- null}
r -t 1.10088 -s 0 -d 1 -p tcp -e 1040 -c 0 -i 12 -a 0 -x {0.0 1.0 7 ------- null}
+ -t 1.10088 -s 1 -d 0 -p ack -e 40 -c 0 -i 20 -a 0 -x {1.0 0.0 7 ------- null}
- -t 1.10088 -s 1 -d 0 -p ack -e 40 -c 0 -i 20 -a 0 -x {1.0 0.0 7 ------- null}
h -t 1.10088 -s 1 -d 0 -p ack -e 40 -c 0 -i 20 -a 0 -x {1.0 0.0 -1 ------- null}
r -t 1.10288 -s 1 -d 0 -p ack -e 40 -c 0 -i 17 -a 0 -x {1.0 0.0 6 ------- null}
+ -t 1.10288 -s 0 -d 1 -p tcp -e 1040 -c 0 -i 21 -a 0 -x {0.0 1.0 13 ------- null}
+ -t 1.10288 -s 0 -d 1 -p tcp -e 1040 -c 0 -i 22 -a 0 -x {0.0 1.0 14 ------- null}
- -t 1.10752 -s 0 -d 1 -p tcp -e 1040 -c 0 -i 16 -a 0 -x {0.0 1.0 10 ------- null}
h -t 1.10752 -s 0 -d 1 -p tcp -e 1040 -c 0 -i 16 -a 0 -x {0.0 1.0 -1 ------- null}
r -t 1.1092 -s 0 -d 1 -p tcp -e 1040 -c 0 -i 13 -a 0 -x {0.0 1.0 8 ------- null}
+ -t 1.1092 -s 1 -d 0 -p ack -e 40 -c 0 -i 23 -a 0 -x {1.0 0.0 8 ------- null}
- -t 1.1092 -s 1 -d 0 -p ack -e 40 -c 0 -i 23 -a 0 -x {1.0 0.0 8 ------- null}
h -t 1.1092 -s 1 -d 0 -p ack -e 40 -c 0 -i 23 -a 0 -x {1.0 0.0 -1 ------- null}
r -t 1.1112 -s 1 -d 0 -p ack -e 40 -c 0 -i 20 -a 0 -x {1.0 0.0 7 ------- null}
+ -t 1.1112 -s 0 -d 1 -p tcp -e 1040 -c 0 -i 24 -a 0 -x {0.0 1.0 15 ------- null}
+ -t 1.1112 -s 0 -d 1 -p tcp -e 1040 -c 0 -i 25 -a 0 -x {0.0 1.0 16 ------- null}
- -t 1.11584 -s 0 -d 1 -p tcp -e 1040 -c 0 -i 18 -a 0 -x {0.0 1.0 11 ------- null}
h -t 1.11584 -s 0 -d 1 -p tcp -e 1040 -c 0 -i 18 -a 0 -x {0.0 1.0 -1 ------- null}
r -t 1.11752 -s 0 -d 1 -p tcp -e 1040 -c 0 -i 15 -a 0 -x {0.0 1.0 9 ------- null}
+ -t 1.11752 -s 1 -d 0 -p ack -e 40 -c 0 -i 26 -a 0 -x {1.0 0.0 9 ------- null}
- -t 1.11752 -s 1 -d 0 -p ack -e 40 -c 0 -i 26 -a 0 -x {1.0 0.0 9 ------- null}
h -t 1.11752 -s 1 -d 0 -p ack -e 40 -c 0 -i 26 -a 0 -x {1.0 0.0 -1 ------- null}
r -t 1.11952 -s 1 -d 0 -p ack -e 40 -c 0 -i 23 -a 0 -x {1.0 0.0 8 ------- null}
+ -t 1.11952 -s 0 -d 1 -p tcp -e 1040 -c 0 -i 27 -a 0 -x {0.0 1.0 17 ------- null}
+ -t 1.11952 -s 0 -d 1 -p tcp -e 1040 -c 0 -i 28 -a 0 -x {0.0 1.0 18 ------- null}
- -t 1.12416 -s 0 -d 1 -p tcp -e 1040 -c 0 -i 19 -a 0 -x {0.0 1.0 12 ------- null}
h -t 1.12416 -s 0 -d 1 -p tcp -e 1040 -c 0 -i 19 -a 0 -x {0.0 1.0 -1 ------- null}
r -t 1.12584 -s 0 -d 1 -p tcp -e 1040 -c 0 -i 16 -a 0 -x {0.0 1.0 10 ------- null}
+ -t 1.12584 -s 1 -d 0 -p ack -e 40 -c 0 -i 29 -a 0 -x {1.0 0.0 10 ------- null}
- -t 1.12584 -s 1 -d 0 -p ack -e 40 -c 0 -i 29 -a 0 -x {1.0 0.0 10 ------- null}
h -t 1.12584 -s 1 -d 0 -p ack -e 40 -c 0 -i 29 -a 0 -x {1.0 0.0 -1 ------- null}
r -t 1.12784 -s 1 -d 0 -p ack -e 40 -c 0 -i 26 -a 0 -x {1.0 0.0 9 ------- null}
+ -t 1.12784 -s 0 -d 1 -p tcp -e 1040 -c 0 -i 30 -a 0 -x {0.0 1.0 19 ------- null}
+ -t 1.12784 -s 0 -d 1 -p tcp -e 1040 -c 0 -i 31 -a 0 -x {0.0 1.0 20 ------- null}
- -t 1.13248 -s 0 -d 1 -p tcp -e 1040 -c 0 -i 21 -a 0 -x {0.0 1.0 13 ------- null}
h -t 1.13248 -s 0 -d 1 -p tcp -e 1040 -c 0 -i 21 -a 0 -x {0.0 1.0 -1 ------- null}
r -t 1.13416 -s 0 -d 1 -p tcp -e 1040 -c 0 -i 18 -a 0 -x {0.0 1.0 11 ------- null}
+ -t 1.13416 -s 1 -d 0 -p ack -e 40 -c 0 -i 32 -a 0 -x {1.0 0.0 11 ------- null}
- -t 1.13416 -s 1 -d 0 -p ack -e 40 -c 0 -i 32 -a 0 -x {1.0 0.0 11 ------- null}
h -t 1.13416 -s 1 -d 0 -p ack -e 40 -c 0 -i 32 -a 0 -x {1.0 0.0 -1 ------- null}
r -t 1.13616 -s 1 -d 0 -p ack -e 40 -c 0 -i 29 -a 0 -x {1.0 0.0 10 ------- null}
+ -t 1.13616 -s 0 -d 1 -p tcp -e 1040 -c 0 -i 33 -a 0 -x {0.0 1.0 21 ------- null}
+ -t 1.13616 -s 0 -d 1 -p tcp -e 1040 -c 0 -i 34 -a 0 -x {0.0 1.0 22 ------- null}
- -t 1.1408 -s 0 -d 1 -p tcp -e 1040 -c 0 -i 22 -a 0 -x {0.0 1.0 14 ------- null}
h -t 1.1408 -s 0 -d 1 -p tcp -e 1040 -c 0 -i 22 -a 0 -x {0.0 1.0 -1 ------- null}
r -t 1.14248 -s 0 -d 1 -p tcp -e 1040 -c 0 -i 19 -a 0 -x {0.0 1.0 12 ------- null}
+ -t 1.14248 -s 1 -d 0 -p ack -e 40 -c 0 -i 35 -a 0 -x {1.0 0.0 12 ------- null}
- -t 1.14248 -s 1 -d 0 -p ack -e 40 -c 0 -i 35 -a 0 -x {1.0 0.0 12 ------- null}
h -t 1.14248 -s 1 -d 0 -p ack -e 40 -c 0 -i 35 -a 0 -x {1.0 0.0 -1 ------- null}
r -t 1.14448 -s 1 -d 0 -p ack -e 40 -c 0 -i 32 -a 0 -x {1.0 0.0 11 ------- null}
+ -t 1.14448 -s 0 -d 1 -p tcp -e 1040 -c 0 -i 36 -a 0 -x {0.0 1.0 23 ------- null}
+ -t 1.14448 -s 0 -d 1 -p tcp -e 1040 -c 0 -i 37 -a 0 -x {0.0 1.0 24 ------- null}
- -t 1.14912 -s 0 -d 1 -p tcp -e 1040 -c 0 -i 24 -a 0 -x {0.0 1.0 15 ------- null}
h -t 1.14912 -s 0 -d 1 -p tcp -e 1040 -c 0 -i 24 -a 0 -x {0.0 1.0 -1 ------- null}
r -t 1.1508 -s 0 -d 1 -p tcp -e 1040 -c 0 -i 21 -a 0 -x {0.0 1.0 13 ------- null}
+ -t 1.1508 -s 1 -d 0 -p ack -e 40 -c 0 -i 38 -a 0 -x {1.0 0.0 13 ------- null}
- -t 1.1508 -s 1 -d 0 -p ack -e 40 -c 0 -i 38 -a 0 -x {1.0 0.0 13 ------- null}
h -t 1.1508 -s 1 -d 0 -p ack -e 40 -c 0 -i 38 -a 0 -x {1.0 0.0 -1 ------- null}
r -t 1.1528 -s 1 -d 0 -p ack -e 40 -c 0 -i 35 -a 0 -x {1.0 0.0 12 ------- null}
+ -t 1.1528 -s 0 -d 1 -p tcp -e 1040 -c 0 -i 39 -a 0 -x {0.0 1.0 25 ------- null}
+ -t 1.1528 -s 0 -d 1 -p tcp -e 1040 -c 0 -i 40 -a 0 -x {0.0 1.0 26 ------- null}
- -t 1.15744 -s 0 -d 1 -p tcp -e 1040 -c 0 -i 25 -a 0 -x {0.0 1.0 16 ------- null}
h -t 1.15744 -s 0 -d 1 -p tcp -e 1040 -c 0 -i 25 -a 0 -x {0.0 1.0 -1 ------- null}
r -t 1.15912 -s 0 -d 1 -p tcp -e 1040 -c 0 -i 22 -a 0 -x {0.0 1.0 14 ------- null}
+ -t 1.15912 -s 1 -d 0 -p ack -e 40 -c 0 -i 41 -a 0 -x {1.0 0.0 14 ------- null}
- -t 1.15912 -s 1 -d 0 -p ack -e 40 -c 0 -i 41 -a 0 -x {1.0 0.0 14 ------- null}
h -t 1.15912 -s 1 -d 0 -p ack -e 40 -c 0 -i 41 -a 0 -x {1.0 0.0 -1 ------- null}
r -t 1.16112 -s 1 -d 0 -p ack -e 40 -c 0 -i 38 -a 0 -x {1.0 0.0 13 ------- null}
+ -t 1.16112 -s 0 -d 1 -p tcp -e 1040 -c 0 -i 42 -a 0 -x {0.0 1.0 27 ------- null}
+ -t 1.16112 -s 0 -d 1 -p tcp -e 1040 -c 0 -i 43 -a 0 -x {0.0 1.0 28 ------- null}
- -t 1.16576 -s 0 -d 1 -p tcp -e 1040 -c 0 -i 27 -a 0 -x {0.0 1.0 17 ------- null}
h -t 1.16576 -s 0 -d 1 -p tcp -e 1040 -c 0 -i 27 -a 0 -x {0.0 1.0 -1 ------- null}
r -t 1.16744 -s 0 -d 1 -p tcp -e 1040 -c 0 -i 24 -a 0 -x {0.0 1.0 15 ------- null}
+ -t 1.16744 -s 1 -d 0 -p ack -e 40 -c 0 -i 44 -a 0 -x {1.0 0.0 15 ------- null}
- -t 1.16744 -s 1 -d 0 -p ack -e 40 -c 0 -i 44 -a 0 -x {1.0 0.0 15 ------- null}
h -t 1.16744 -s 1 -d 0 -p ack -e 40 -c 0 -i 44 -a 0 -x {1.0 0.0 -1 ------- null}
r -t 1.16944 -s 1 -d 0 -p ack -e 40 -c 0 -i 41 -a 0 -x {1.0 0.0 14 ------- null}
+ -t 1.16944 -s 0 -d 1 -p tcp -e 1040 -c 0 -i 45 -a 0 -x {0.0 1.0 29 ------- null}
+ -t 1.16944 -s 0 -d 1 -p tcp -e 1040 -c 0 -i 46 -a 0 -x {0.0 1.0 30 ------- null}
- -t 1.17408 -s 0 -d 1 -p tcp -e 1040 -c 0 -i 28 -a 0 -x {0.0 1.0 18 ------- null}
h -t 1.17408 -s 0 -d 1 -p tcp -e 1040 -c 0 -i 28 -a 0 -x {0.0 1.0 -1 ------- null}
r -t 1.17576 -s 0 -d 1 -p tcp -e 1040 -c 0 -i 25 -a 0 -x {0.0 1.0 16 ------- null}
+ -t 1.17576 -s 1 -d 0 -p ack -e 40 -c 0 -i 47 -a 0 -x {1.0 0.0 16 ------- null}
- -t 1.17576 -s 1 -d 0 -p ack -e 40 -c 0 -i 47 -a 0 -x {1.0 0.0 16 ------- null}
h -t 1.17576 -s 1 -d 0 -p ack -e 40 -c 0 -i 47 -a 0 -x {1.0 0.0 -1 ------- null}
r -t 1.17776 -s 1 -d 0 -p ack -e 40 -c 0 -i 44 -a 0 -x {1.0 0.0 15 ------- null}
+ -t 1.17776 -s 0 -d 1 -p tcp -e 1040 -c 0 -i 48 -a 0 -x {0.0 1.0 31 ------- null}
+ -t 1.17776 -s 0 -d 1 -p tcp -e 1040 -c 0 -i 49 -a 0 -x {0.0 1.0 32 ------- null}
- -t 1.1824 -s 0 -d 1 -p tcp -e 1040 -c 0 -i 30 -a 0 -x {0.0 1.0 19 ------- null}
h -t 1.1824 -s 0 -d 1 -p tcp -e 1040 -c 0 -i 30 -a 0 -x {0.0 1.0 -1 ------- null}
r -t 1.18408 -s 0 -d 1 -p tcp -e 1040 -c 0 -i 27 -a 0 -x {0.0 1.0 17 ------- null}
+ -t 1.18408 -s 1 -d 0 -p ack -e 40 -c 0 -i 50 -a 0 -x {1.0 0.0 17 ------- null}
- -t 1.18408 -s 1 -d 0 -p ack -e 40 -c 0 -i 50 -a 0 -x {1.0 0.0 17 ------- null}
h -t 1.18408 -s 1 -d 0 -p ack -e 40 -c 0 -i 50 -a 0 -x {1.0 0.0 -1 ------- null}
r -t 1.18608 -s 1 -d 0 -p ack -e 40 -c 0 -i 47 -a 0 -x {1.0 0.0 16 ------- null}
+ -t 1.18608 -s 0 -d 1 -p tcp -e 1040 -c 0 -i 51 -a 0 -x {0.0 1.0 33 ------- null}
+ -t 1.18608 -s 0 -d 1 -p tcp -e 1040 -c 0 -i 52 -a 0 -x {0.0 1.0 34 ------- null}
- -t 1.19072 -s 0 -d 1 -p tcp -e 1040 -c 0 -i 31 -a 0 -x {0.0 1.0 20 ------- null}
h -t 1.19072 -s 0 -d 1 -p tcp -e 1040 -c 0 -i 31 -a 0 -x {0.0 1.0 -1 ------- null}
r -t 1.1924 -s 0 -d 1 -p tcp -e 1040 -c 0 -i 28 -a 0 -x {0.0 1.0 18 ------- null}
+ -t 1.1924 -s 1 -d 0 -p ack -e 40 -c 0 -i 53 -a 0 -x {1.0 0.0 18 ------- null}
- -t 1.1924 -s 1 -d 0 -p ack -e 40 -c 0 -i 53 -a 0 -x {1.0 0.0 18 ------- null}
h -t 1.1924 -s 1 -d 0 -p ack -e 40 -c 0 -i 53 -a 0 -x {1.0 0.0 -1 ------- null}
r -t 1.1944 -s 1 -d 0 -p ack -e 40 -c 0 -i 50 -a 0 -x {1.0 0.0 17 ------- null}
+ -t 1.1944 -s 0 -d 1 -p tcp -e 1040 -c 0 -i 54 -a 0 -x {0.0 1.0 35 ------- null}
+ -t 1.1944 -s 0 -d 1 -p tcp -e 1040 -c 0 -i 55 -a 0 -x {0.0 1.0 36 ------- null}
- -t 1.19904 -s 0 -d 1 -p tcp -e 1040 -c 0 -i 33 -a 0 -x {0.0 1.0 21 ------- null}
h -t 1.19904 -s 0 -d 1 -p tcp -e 1040 -c 0 -i 33 -a 0 -x {0.0 1.0 -1 ------- null}
r -t 1.20072 -s 0 -d 1 -p tcp -e 1040 -c 0 -i 30 -a 0 -x {0.0 1.0 19 ------- null}
+ -t 1.20072 -s 1 -d 0 -p ack -e 40 -c 0 -i 56 -a 0 -x {1.0 0.0 19 ------- null}
- -t 1.20072 -s 1 -d 0 -p ack -e 40 -c 0 -i 56 -a 0 -x {1.0 0.0 19 ------- null}
h -t 1.20072 -s 1 -d 0 -p ack -e 40 -c 0 -i 56 -a 0 -x {1.0 0.0 -1 ------- null}
r -t 1.20272 -s 1 -d 0 -p ack -e 40 -c 0 -i 53 -a 0 -x {1.0 0.0 18 ------- null}
+ -t 1.20272 -s 0 -d 1 -p tcp -e 1040 -c 0 -i 57 -a 0 -x {0.0 1.0 37 ------- null}
+ -t 1.20272 -s 0 -d 1 -p tcp -e 1040 -c 0 -i 58 -a 0 -x {0.0 1.0 38 ------- null}
- -t 1.20736 -s 0 -d 1 -p tcp -e 1040 -c 0 -i 34 -a 0 -x {0.0 1.0 22 ------- null}
h -t 1.20736 -s 0 -d 1 -p tcp -e 1040 -c 0 -i 34 -a 0 -x {0.0 1.0 -1 ------- null}
r -t 1.20904 -s 0 -d 1 -p tcp -e 1040 -c 0 -i 31 -a 0 -x {0.0 1.0 20 ------- null}
+ -t 1.20904 -s 1 -d 0 -p ack -e 40 -c 0 -i 59 -a 0 -x {1.0 0.0 20 ------- null}
- -t 1.20904 -s 1 -d 0 -p ack -e 40 -c 0 -i 59 -a 0 -x {1.0 0.0 20 ------- null}
h -t 1.20904 -s 1 -d 0 -p ack -e 40 -c 0 -i 59 -a 0 -x {1.0 0.0 -1 ------- null}
r -t 1.21104 -s 1 -d 0 -p ack -e 40 -c 0 -i 56 -a 0 -x {1.0 0.0 19 ------- null}
+ -t 1.21104 -s 0 -d 1 -p tcp -e 1040 -c 0 -i 60 -a 0 -x {0.0 1.0 39 ------- null}
- -t 1.21568 -s 0 -d 1 -p tcp -e 1040 -c 0 -i 36 -a 0 -x {0.0 1.0 23 ------- null}
h -t 1.21568 -s 0 -d 1 -p tcp -e 1040 -c 0 -i 36 -a 0 -x {0.0 1.0 -1 ------- null}
r -t 1.21736 -s 0 -d 1 -p tcp -e 1040 -c 0 -i 33 -a 0 -x {0.0 1.0 21 ------- null}
+ -t 1.21736 -s 1 -d 0 -p ack -e 40 -c 0 -i 61 -a 0 -x {1.0 0.0 21 ------- null}
- -t 1.21736 -s 1 -d 0 -p ack -e 40 -c 0 -i 61 -a 0 -x {1.0 0.0 21 ------- null}
h -t 1.21736 -s 1 -d 0 -p ack -e 40 -c 0 -i 61 -a 0 -x {1.0 0.0 -1 ------- null}
r -t 1.21936 -s 1 -d 0 -p ack -e 40 -c 0 -i 59 -a 0 -x {1.0 0.0 20 ------- null}
+ -t 1.21936 -s 0 -d 1 -p tcp -e 1040 -c 0 -i 62 -a 0 -x {0.0 1.0 40 ------- null}
- -t 1.224 -s 0 -d 1 -p tcp -e 1040 -c 0 -i 37 -a 0 -x {0.0 1.0 24 ------- null}
h -t 1.224 -s 0 -d 1 -p tcp -e 1040 -c 0 -i 37 -a 0 -x {0.0 1.0 -1 ------- null}
r -t 1.22568 -s 0 -d 1 -p tcp -e 1040 -c 0 -i 34 -a 0 -x {0.0 1.0 22 ------- null}
+ -t 1.22568 -s 1 -d 0 -p ack -e 40 -c 0 -i 63 -a 0 -x {1.0 0.0 22 ------- null}
- -t 1.22568 -s 1 -d 0 -p ack -e 40 -c 0 -i 63 -a 0 -x {1.0 0.0 22 ------- null}
h -t 1.22568 -s 1 -d 0 -p ack -e 40 -c 0 -i 63 -a 0 -x {1.0 0.0 -1 ------- null}
r -t 1.22768 -s 1 -d 0 -p ack -e 40 -c 0 -i 61 -a 0 -x {1.0 0.0 21 ------- null}
+ -t 1.22768 -s 0 -d 1 -p tcp -e 1040 -c 0 -i 64 -a 0 -x {0.0 1.0 41 ------- null}
- -t 1.23232 -s 0 -d 1 -p tcp -e 1040 -c 0 -i 39 -a 0 -x {0.0 1.0 25 ------- null}
h -t 1.23232 -s 0 -d 1 -p tcp -e 1040 -c 0 -i 39 -a 0 -x {0.0 1.0 -1 ------- null}
r -t 1.234 -s 0 -d 1 -p tcp -e 1040 -c 0 -i 36 -a 0 -x {0.0 1.0 23 ------- null}
+ -t 1.234 -s 1 -d 0 -p ack -e 40 -c 0 -i 65 -a 0 -x {1.0 0.0 23 ------- null}
- -t 1.234 -s 1 -d 0 -p ack -e 40 -c 0 -i 65 -a 0 -x {1.0 0.0 23 ------- null}
h -t 1.234 -s 1 -d 0 -p ack -e 40 -c 0 -i 65 -a 0 -x {1.0 0.0 -1 ------- null}
r -t 1.236 -s 1 -d 0 -p ack -e 40 -c 0 -i 63 -a 0 -x {1.0 0.0 22 ------- null}
+ -t 1.236 -s 0 -d 1 -p tcp -e 1040 -c 0 -i 66 -a 0 -x {0.0 1.0 42 ------- null}
- -t 1.24064 -s 0 -d 1 -p tcp -e 1040 -c 0 -i 40 -a 0 -x {0.0 1.0 26 ------- null}
h -t 1.24064 -s 0 -d 1 -p tcp -e 1040 -c 0 -i 40 -a 0 -x {0.0 1.0 -1 ------- null}
r -t 1.24232 -s 0 -d 1 -p tcp -e 1040 -c 0 -i 37 -a 0 -x {0.0 1.0 24 ------- null}
+ -t 1.24232 -s 1 -d 0 -p ack -e 40 -c 0 -i 67 -a 0 -x {1.0 0.0 24 ------- null}
- -t 1.24232 -s 1 -d 0 -p ack -e 40 -c 0 -i 67 -a 0 -x {1.0 0.0 24 ------- null}
h -t 1.24232 -s 1 -d 0 -p ack -e 40 -c 0 -i 67 -a 0 -x {1.0 0.0 -1 ------- null}
r -t 1.24432 -s 1 -d 0 -p ack -e 40 -c 0 -i 65 -a 0 -x {1.0 0.0 23 ------- null}
+ -t 1.24432 -s 0 -d 1 -p tcp -e 1040 -c 0 -i 68 -a 0 -x {0.0 1.0 43 ------- null}
- -t 1.24896 -s 0 -d 1 -p tcp -e 1040 -c 0 -i 42 -a 0 -x {0.0 1.0 27 ------- null}
h -t 1.24896 -s 0 -d 1 -p tcp -e 1040 -c 0 -i 42 -a 0 -x {0.0 1.0 -1 ------- null}
r -t 1.25064 -s 0 -d 1 -p tcp -e 1040 -c 0 -i 39 -a 0 -x {0.0 1.0 25 ------- null}
+ -t 1.25064 -s 1 -d 0 -p ack -e 40 -c 0 -i 69 -a 0 -x {1.0 0.0 25 ------- null}
- -t 1.25064 -s 1 -d 0 -p ack -e 40 -c 0 -i 69 -a 0 -x {1.0 0.0 25 ------- null}
h -t 1.25064 -s 1 -d 0 -p ack -e 40 -c 0 -i 69 -a 0 -x {1.0 0.0 -1 ------- null}
r -t 1.25264 -s 1 -d 0 -p ack -e 40 -c 0 -i 67 -a 0 -x {1.0 0.0 24 ------- null}
+ -t 1.25264 -s 0 -d 1 -p tcp -e 1040 -c 0 -i 70 -a 0 -x {0.0 1.0 44 ------- null}
- -t 1.25728 -s 0 -d 1 -p tcp -e 1040 -c 0 -i 43 -a 0 -x {0.0 1.0 28 ------- null}
h -t 1.25728 -s 0 -d 1 -p tcp -e 1040 -c 0 -i 43 -a 0 -x {0.0 1.0 -1 ------- null}
r -t 1.25896 -s 0 -d 1 -p tcp -e 1040 -c 0 -i 40 -a 0 -x {0.0 1.0 26 ------- null}
+ -t 1.25896 -s 1 -d 0 -p ack -e 40 -c 0 -i 71 -a 0 -x {1.0 0.0 26 ------- null}
- -t 1.25896 -s 1 -d 0 -p ack -e 40 -c 0 -i 71 -a 0 -x {1.0 0.0 26 ------- null}
h -t 1.25896 -s 1 -d 0 -p ack -e 40 -c 0 -i 71 -a 0 -x {1.0 0.0 -1 ------- null}
r -t 1.26096 -s 1 -d 0 -p ack -e 40 -c 0 -i 69 -a 0 -x {1.0 0.0 25 ------- null}
+ -t 1.26096 -s 0 -d 1 -p tcp -e 1040 -c 0 -i 72 -a 0 -x {0.0 1.0 45 ------- null}
- -t 1.2656 -s 0 -d 1 -p tcp -e 1040 -c 0 -i 45 -a 0 -x {0.0 1.0 29 ------- null}
h -t 1.2656 -s 0 -d 1 -p tcp -e 1040 -c 0 -i 45 -a 0 -x {0.0 1.0 -1 ------- null}
r -t 1.26728 -s 0 -d 1 -p tcp -e 1040 -c 0 -i 42 -a 0 -x {0.0 1.0 27 ------- null}
+ -t 1.26728 -s 1 -d 0 -p ack -e 40 -c 0 -i 73 -a 0 -x {1.0 0.0 27 ------- null}
- -t 1.26728 -s 1 -d 0 -p ack -e 40 -c 0 -i 73 -a 0 -x {1.0 0.0 27 ------- null}
h -t 1.26728 -s 1 -d 0 -p ack -e 40 -c 0 -i 73 -a 0 -x {1.0 0.0 -1 ------- null}
r -t 1.26928 -s 1 -d 0 -p ack -e 40 -c 0 -i 71 -a 0 -x {1.0 0.0 26 ------- null}
+ -t 1.26928 -s 0 -d 1 -p tcp -e 1040 -c 0 -i 74 -a 0 -x {0.0 1.0 46 ------- null}
- -t 1.27392 -s 0 -d 1 -p tcp -e 1040 -c 0 -i 46 -a 0 -x {0.0 1.0 30 ------- null}
h -t 1.27392 -s 0 -d 1 -p tcp -e 1040 -c 0 -i 46 -a 0 -x {0.0 1.0 -1 ------- null}
r -t 1.2756 -s 0 -d 1 -p tcp -e 1040 -c 0 -i 43 -a 0 -x {0.0 1.0 28 ------- null}
+ -t 1.2756 -s 1 -d 0 -p ack -e 40 -c 0 -i 75 -a 0 -x {1.0 0.0 28 ------- null}
- -t 1.2756 -s 1 -d 0 -p ack -e 40 -c 0 -i 75 -a 0 -x {1.0 0.0 28 ------- null}
h -t 1.2756 -s 1 -d 0 -p ack -e 40 -c 0 -i 75 -a 0 -x {1.0 0.0 -1 ------- null}
r -t 1.2776 -s 1 -d 0 -p ack -e 40 -c 0 -i 73 -a 0 -x {1.0 0.0 27 ------- null}
+ -t 1.2776 -s 0 -d 1 -p tcp -e 1040 -c 0 -i 76 -a 0 -x {0.0 1.0 47 ------- null}
- -t 1.28224 -s 0 -d 1 -p tcp -e 1040 -c 0 -i 48 -a 0 -x {0.0 1.0 31 ------- null}
h -t 1.28224 -s 0 -d 1 -p tcp -e 1040 -c 0 -i 48 -a 0 -x {0.0 1.0 -1 ------- null}
r -t 1.28392 -s 0 -d 1 -p tcp -e 1040 -c 0 -i 45 -a 0 -x {0.0 1.0 29 ------- null}
+ -t 1.28392 -s 1 -d 0 -p ack -e 40 -c 0 -i 77 -a 0 -x {1.0 0.0 29 ------- null}
- -t 1.28392 -s 1 -d 0 -p ack -e 40 -c 0 -i 77 -a 0 -x {1.0 0.0 29 ------- null}
h -t 1.28392 -s 1 -d 0 -p ack -e 40 -c 0 -i 77 -a 0 -x {1.0 0.0 -1 ------- null}
r -t 1.28592 -s 1 -d 0 -p ack -e 40 -c 0 -i 75 -a 0 -x {1.0 0.0 28 ------- null}
+ -t 1.28592 -s 0 -d 1 -p tcp -e 1040 -c 0 -i 78 -a 0 -x {0.0 1.0 48 ------- null}
- -t 1.29056 -s 0 -d 1 -p tcp -e 1040 -c 0 -i 49 -a 0 -x {0.0 1.0 32 ------- null}
h -t 1.29056 -s 0 -d 1 -p tcp -e 1040 -c 0 -i 49 -a 0 -x {0.0 1.0 -1 ------- null}
r -t 1.29224 -s 0 -d 1 -p tcp -e 1040 -c 0 -i 46 -a 0 -x {0.0 1.0 30 ------- null}
+ -t 1.29224 -s 1 -d 0 -p ack -e 40 -c 0 -i 79 -a 0 -x {1.0 0.0 30 ------- null}
- -t 1.29224 -s 1 -d 0 -p ack -e 40 -c 0 -i 79 -a 0 -x {1.0 0.0 30 ------- null}
h -t 1.29224 -s 1 -d 0 -p ack -e 40 -c 0 -i 79 -a 0 -x {1.0 0.0 -1 ------- null}
r -t 1.29424 -s 1 -d 0 -p ack -e 40 -c 0 -i 77 -a 0 -x {1.0 0.0 29 ------- null}
+ -t 1.29424 -s 0 -d 1 -p tcp -e 1040 -c 0 -i 80 -a 0 -x {0.0 1.0 49 ------- null}
- -t 1.29888 -s 0 -d 1 -p tcp -e 1040 -c 0 -i 51 -a 0 -x {0.0 1.0 33 ------- null}
h -t 1.29888 -s 0 -d 1 -p tcp -e 1040 -c 0 -i 51 -a 0 -x {0.0 1.0 -1 ------- null}
r -t 1.30056 -s 0 -d 1 -p tcp -e 1040 -c 0 -i 48 -a 0 -x {0.0 1.0 31 ------- null}
+ -t 1.30056 -s 1 -d 0 -p ack -e 40 -c 0 -i 81 -a 0 -x {1.0 0.0 31 ------- null}
- -t 1.30056 -s 1 -d 0 -p ack -e 40 -c 0 -i 81 -a 0 -x {1.0 0.0 31 ------- null}
h -t 1.30056 -s 1 -d 0 -p ack -e 40 -c 0 -i 81 -a 0 -x {1.0 0.0 -1 ------- null}
r -t 1.30256 -s 1 -d 0 -p ack -e 40 -c 0 -i 79 -a 0 -x {1.0 0.0 30 ------- null}
+ -t 1.30256 -s 0 -d 1 -p tcp -e 1040 -c 0 -i 82 -a 0 -x {0.0 1.0 50 ------- null}
- -t 1.3072 -s 0 -d 1 -p tcp -e 1040 -c 0 -i 52 -a 0 -x {0.0 1.0 34 ------- null}
h -t 1.3072 -s 0 -d 1 -p tcp -e 1040 -c 0 -i 52 -a 0 -x {0.0 1.0 -1 ------- null}
r -t 1.30888 -s 0 -d 1 -p tcp -e 1040 -c 0 -i 49 -a 0 -x {0.0 1.0 32 ------- null}
+ -t 1.30888 -s 1 -d 0 -p ack -e 40 -c 0 -i 83 -a 0 -x {1.0 0.0 32 ------- null}
- -t 1.30888 -s 1 -d 0 -p ack -e 40 -c 0 -i 83 -a 0 -x {1.0 0.0 32 ------- null}
h -t 1.30888 -s 1 -d 0 -p ack -e 40 -c 0 -i 83 -a 0 -x {1.0 0.0 -1 ------- null}
r -t 1.31088 -s 1 -d 0 -p ack -e 40 -c 0 -i 81 -a 0 -x {1.0 0.0 31 ------- null}
+ -t 1.31088 -s 0 -d 1 -p tcp -e 1040 -c 0 -i 84 -a 0 -x {0.0 1.0 51 ------- null}
- -t 1.31552 -s 0 -d 1 -p tcp -e 1040 -c 0 -i 54 -a 0 -x {0.0 1.0 35 ------- null}
h -t 1.31552 -s 0 -d 1 -p tcp -e 1040 -c 0 -i 54 -a 0 -x {0.0 1.0 -1 ------- null}
r -t 1.3172 -s 0 -d 1 -p tcp -e 1040 -c 0 -i 51 -a 0 -x {0.0 1.0 33 ------- null}
+ -t 1.3172 -s 1 -d 0 -p ack -e 40 -c 0 -i 85 -a 0 -x {1.0 0.0 33 ------- null}
- -t 1.3172 -s 1 -d 0 -p ack -e 40 -c 0 -i 85 -a 0 -x {1.0 0.0 33 ------- null}
h -t 1.3172 -s 1 -d 0 -p ack -e 40 -c 0 -i 85 -a 0 -x {1.0 0.0 -1 ------- null}
r -t 1.3192 -s 1 -d 0 -p ack -e 40 -c 0 -i 83 -a 0 -x {1.0 0.0 32 ------- null}
+ -t 1.3192 -s 0 -d 1 -p tcp -e 1040 -c 0 -i 86 -a 0 -x {0.0 1.0 52 ------- null}
- -t 1.32384 -s 0 -d 1 -p tcp -e 1040 -c 0 -i 55 -a 0 -x {0.0 1.0 36 ------- null}
h -t 1.32384 -s 0 -d 1 -p tcp -e 1040 -c 0 -i 55 -a 0 -x {0.0 1.0 -1 ------- null}
r -t 1.32552 -s 0 -d 1 -p tcp -e 1040 -c 0 -i 52 -a 0 -x {0.0 1.0 34 ------- null}
+ -t 1.32552 -s 1 -d 0 -p ack -e 40 -c 0 -i 87 -a 0 -x {1.0 0.0 34 ------- null}
- -t 1.32552 -s 1 -d 0 -p ack -e 40 -c 0 -i 87 -a 0 -x {1.0 0.0 34 ------- null}
h -t 1.32552 -s 1 -d 0 -p ack -e 40 -c 0 -i 87 -a 0 -x {1.0 0.0 -1 ------- null}
r -t 1.32752 -s 1 -d 0 -p ack -e 40 -c 0 -i 85 -a 0 -x {1.0 0.0 33 ------- null}
+ -t 1.32752 -s 0 -d 1 -p tcp -e 1040 -c 0 -i 88 -a 0 -x {0.0 1.0 53 ------- null}
- -t 1.33216 -s 0 -d 1 -p tcp -e 1040 -c 0 -i 57 -a 0 -x {0.0 1.0 37 ------- null}
h -t 1.33216 -s 0 -d 1 -p tcp -e 1040 -c 0 -i 57 -a 0 -x {0.0 1.0 -1 ------- null}
r -t 1.33384 -s 0 -d 1 -p tcp -e 1040 -c 0 -i 54 -a 0 -x {0.0 1.0 35 ------- null}
+ -t 1.33384 -s 1 -d 0 -p ack -e 40 -c 0 -i 89 -a 0 -x {1.0 0.0 35 ------- null}
- -t 1.33384 -s 1 -d 0 -p ack -e 40 -c 0 -i 89 -a 0 -x {1.0 0.0 35 ------- null}
h -t 1.33384 -s 1 -d 0 -p ack -e 40 -c 0 -i 89 -a 0 -x {1.0 0.0 -1 ------- null}
r -t 1.33584 -s 1 -d 0 -p ack -e 40 -c 0 -i 87 -a 0 -x {1.0 0.0 34 ------- null}
+ -t 1.33584 -s 0 -d 1 -p tcp -e 1040 -c 0 -i 90 -a 0 -x {0.0 1.0 54 ------- null}
- -t 1.34048 -s 0 -d 1 -p tcp -e 1040 -c 0 -i 58 -a 0 -x {0.0 1.0 38 ------- null}
h -t 1.34048 -s 0 -d 1 -p tcp -e 1040 -c 0 -i 58 -a 0 -x {0.0 1.0 -1 ------- null}
r -t 1.34216 -s 0 -d 1 -p tcp -e 1040 -c 0 -i 55 -a 0 -x {0.0 1.0 36 ------- null}
+ -t 1.34216 -s 1 -d 0 -p ack -e 40 -c 0 -i 91 -a 0 -x {1.0 0.0 36 ------- null}
- -t 1.34216 -s 1 -d 0 -p ack -e 40 -c 0 -i 91 -a 0 -x {1.0 0.0 36 ------- null}
h -t 1.34216 -s 1 -d 0 -p ack -e 40 -c 0 -i 91 -a 0 -x {1.0 0.0 -1 ------- null}
r -t 1.34416 -s 1 -d 0 -p ack -e 40 -c 0 -i 89 -a 0 -x {1.0 0.0 35 ------- null}
+ -t 1.34416 -s 0 -d 1 -p tcp -e 1040 -c 0 -i 92 -a 0 -x {0.0 1.0 55 ------- null}
- -t 1.3488 -s 0 -d 1 -p tcp -e 1040 -c 0 -i 60 -a 0 -x {0.0 1.0 39 ------- null}
h -t 1.3488 -s 0 -d 1 -p tcp -e 1040 -c 0 -i 60 -a 0 -x {0.0 1.0 -1 ------- null}
r -t 1.35048 -s 0 -d 1 -p tcp -e 1040 -c 0 -i 57 -a 0 -x {0.0 1.0 37 ------- null}
+ -t 1.35048 -s 1 -d 0 -p ack -e 40 -c 0 -i 93 -a 0 -x {1.0 0.0 37 ------- null}
- -t 1.35048 -s 1 -d 0 -p ack -e 40 -c 0 -i 93 -a 0 -x {1.0 0.0 37 ------- null}
h -t 1.35048 -s 1 -d 0 -p ack -e 40 -c 0 -i 93 -a 0 -x {1.0 0.0 -1 ------- null}
r -t 1.35248 -s 1 -d 0 -p ack -e 40 -c 0 -i 91 -a 0 -x {1.0 0.0 36 ------- null}
+ -t 1.35248 -s 0 -d 1 -p tcp -e 1040 -c 0 -i 94 -a 0 -x {0.0 1.0 56 ------- null}
- -t 1.35712 -s 0 -d 1 -p tcp -e 1040 -c 0 -i 62 -a 0 -x {0.0 1.0 40 ------- null}
h -t 1.35712 -s 0 -d 1 -p tcp -e 1040 -c 0 -i 62 -a 0 -x {0.0 1.0 -1 ------- null}
r -t 1.3588 -s 0 -d 1 -p tcp -e 1040 -c 0 -i 58 -a 0 -x {0.0 1.0 38 ------- null}
+ -t 1.3588 -s 1 -d 0 -p ack -e 40 -c 0 -i 95 -a 0 -x {1.0 0.0 38 ------- null}
- -t 1.3588 -s 1 -d 0 -p ack -e 40 -c 0 -i 95 -a 0 -x {1.0 0.0 38 ------- null}
h -t 1.3588 -s 1 -d 0 -p ack -e 40 -c 0 -i 95 -a 0 -x {1.0 0.0 -1 ------- null}
r -t 1.3608 -s 1 -d 0 -p ack -e 40 -c 0 -i 93 -a 0 -x {1.0 0.0 37 ------- null}
+ -t 1.3608 -s 0 -d 1 -p tcp -e 1040 -c 0 -i 96 -a 0 -x {0.0 1.0 57 ------- null}
- -t 1.36544 -s 0 -d 1 -p tcp -e 1040 -c 0 -i 64 -a 0 -x {0.0 1.0 41 ------- null}
h -t 1.36544 -s 0 -d 1 -p tcp -e 1040 -c 0 -i 64 -a 0 -x {0.0 1.0 -1 ------- null}
r -t 1.36712 -s 0 -d 1 -p tcp -e 1040 -c 0 -i 60 -a 0 -x {0.0 1.0 39 ------- null}
+ -t 1.36712 -s 1 -d 0 -p ack -e 40 -c 0 -i 97 -a 0 -x {1.0 0.0 39 ------- null}
- -t 1.36712 -s 1 -d 0 -p ack -e 40 -c 0 -i 97 -a 0 -x {1.0 0.0 39 ------- null}
h -t 1.36712 -s 1 -d 0 -p ack -e 40 -c 0 -i 97 -a 0 -x {1.0 0.0 -1 ------- null}
r -t 1.36912 -s 1 -d 0 -p ack -e 40 -c 0 -i 95 -a 0 -x {1.0 0.0 38 ------- null}
+ -t 1.36912 -s 0 -d 1 -p tcp -e 1040 -c 0 -i 98 -a 0 -x {0.0 1.0 58 ------- null}
- -t 1.37376 -s 0 -d 1 -p tcp -e 1040 -c 0 -i 66 -a 0 -x {0.0 1.0 42 ------- null}
h -t 1.37376 -s 0 -d 1 -p tcp -e 1040 -c 0 -i 66 -a 0 -x {0.0 1.0 -1 ------- null}
r -t 1.37544 -s 0 -d 1 -p tcp -e 1040 -c 0 -i 62 -a 0 -x {0.0 1.0 40 ------- null}
+ -t 1.37544 -s 1 -d 0 -p ack -e 40 -c 0 -i 99 -a 0 -x {1.0 0.0 40 ------- null}
- -t 1.37544 -s 1 -d 0 -p ack -e 40 -c 0 -i 99 -a 0 -x {1.0 0.0 40 ------- null}
h -t 1.37544 -s 1 -d 0 -p ack -e 40 -c 0 -i 99 -a 0 -x {1.0 0.0 -1 ------- null}
r -t 1.37744 -s 1 -d 0 -p ack -e 40 -c 0 -i 97 -a 0 -x {1.0 0.0 39 ------- null}
+ -t 1.37744 -s 0 -d 1 -p tcp -e 1040 -c 0 -i 100 -a 0 -x {0.0 1.0 59 ------- null}
- -t 1.38208 -s 0 -d 1 -p tcp -e 1040 -c 0 -i 68 -a 0 -x {0.0 1.0 43 ------- null}
h -t 1.38208 -s 0 -d 1 -p tcp -e 1040 -c 0 -i 68 -a 0 -x {0.0 1.0 -1 ------- null}
r -t 1.38376 -s 0 -d 1 -p tcp -e 1040 -c 0 -i 64 -a 0 -x {0.0 1.0 41 ------- null}
+ -t 1.38376 -s 1 -d 0 -p ack -e 40 -c 0 -i 101 -a 0 -x {1.0 0.0 41 ------- null}
- -t 1.38376 -s 1 -d 0 -p ack -e 40 -c 0 -i 101 -a 0 -x {1.0 0.0 41 ------- null}
h -t 1.38376 -s 1 -d 0 -p ack -e 40 -c 0 -i 101 -a 0 -x {1.0 0.0 -1 ------- null}
r -t 1.38576 -s 1 -d 0 -p ack -e 40 -c 0 -i 99 -a 0 -x {1.0 0.0 40 ------- null}
+ -t 1.38576 -s 0 -d 1 -p tcp -e 1040 -c 0 -i 102 -a 0 -x {0.0 1.0 60 ------- null}
- -t 1.3904 -s 0 -d 1 -p tcp -e 1040 -c 0 -i 70 -a 0 -x {0.0 1.0 44 ------- null}
h -t 1.3904 -s 0 -d 1 -p tcp -e 1040 -c 0 -i 70 -a 0 -x {0.0 1.0 -1 ------- null}
r -t 1.39208 -s 0 -d 1 -p tcp -e 1040 -c 0 -i 66 -a 0 -x {0.0 1.0 42 ------- null}
+ -t 1.39208 -s 1 -d 0 -p ack -e 40 -c 0 -i 103 -a 0 -x {1.0 0.0 42 ------- null}